    2    2    1    1
  0.1956688E+02  0.3810853E-09  0.3810853E-09  0.3810853E-09  0.5000000E-15
  1.000000000000000E-004
  CAR 
 Si                                      
    8   40    8
 
  0.5000000E+00  0.5000000E+00  0.5000000E+00  0.2500000E-01
   1       -3.277684
   2       -0.690472
   3        5.251197
   4        5.251197
   5        8.054550
   6        9.645142
   7        9.645142
   8       14.042126
 
  0.4736842E+00  0.4736842E+00  0.4736842E+00  0.2500000E-01
   1       -3.320078
   2       -0.630506
   3        5.256257
   4        5.256257
   5        8.061829
   6        9.651832
   7        9.651832
   8       14.052358
 
  0.4473684E+00  0.4473684E+00  0.4473684E+00  0.2500000E-01
   1       -3.436588
   2       -0.461357
   3        5.271398
   4        5.271399
   5        8.078470
   6        9.671438
   7        9.671438
   8       14.081575
 
  0.4210526E+00  0.4210526E+00  0.4210526E+00  0.2500000E-01
   1       -3.604368
   2       -0.206402
   3        5.296567
   4        5.296568
   5        8.106511
   6        9.704355
   7        9.704355
   8       14.127962
 
  0.3947368E+00  0.3947368E+00  0.3947368E+00  0.2500000E-01
   1       -3.799946
   2        0.111520
   3        5.331881
   4        5.331882
   5        8.145127
   6        9.744591
   7        9.744591
   8       14.187639
 
  0.3684211E+00  0.3684211E+00  0.3684211E+00  0.2500000E-01
   1       -4.007554
   2        0.476757
   3        5.376912
   4        5.376912
   5        8.194439
   6        9.789259
   7        9.789259
   8       14.252823
 
  0.3421053E+00  0.3421053E+00  0.3421053E+00  0.2500000E-01
   1       -4.216704
   2        0.876568
   3        5.432257
   4        5.432257
   5        8.254061
   6        9.835041
   7        9.835041
   8       14.299196
 
  0.3157895E+00  0.3157895E+00  0.3157895E+00  0.2500000E-01
   1       -4.420651
   2        1.304462
   3        5.497412
   4        5.497412
   5        8.323478
   6        9.874222
   7        9.874222
   8       14.276409
 
  0.2894737E+00  0.2894737E+00  0.2894737E+00  0.2500000E-01
   1       -4.615134
   2        1.755315
   3        5.572094
   4        5.572094
   5        8.401925
   6        9.898305
   7        9.898305
   8       13.860415
 
  0.2631579E+00  0.2631579E+00  0.2631579E+00  0.2500000E-01
   1       -4.797350
   2        2.225423
   3        5.656269
   4        5.656270
   5        8.488403
   6        9.898816
   7        9.898816
   8       13.804450
 
  0.2368421E+00  0.2368421E+00  0.2368421E+00  0.2500000E-01
   1       -4.965392
   2        2.711480
   3        5.748525
   4        5.748525
   5        8.581553
   6        9.864694
   7        9.864694
   8       13.399918
 
  0.2105263E+00  0.2105263E+00  0.2105263E+00  0.2500000E-01
   1       -5.117921
   2        3.209626
   3        5.848731
   4        5.848731
   5        8.678408
   6        9.795423
   7        9.795423
   8       12.955689
 
  0.1842105E+00  0.1842105E+00  0.1842105E+00  0.2500000E-01
   1       -5.254127
   2        3.716292
   3        5.953842
   4        5.953843
   5        8.773657
   6        9.690441
   7        9.690441
   8       12.491235
 
  0.1578947E+00  0.1578947E+00  0.1578947E+00  0.2500000E-01
   1       -5.373088
   2        4.228472
   3        6.062422
   4        6.062422
   5        8.866774
   6        9.558668
   7        9.558668
   8       12.022611
 
  0.1315789E+00  0.1315789E+00  0.1315789E+00  0.2500000E-01
   1       -5.474456
   2        4.736927
   3        6.171139
   4        6.171139
   5        8.949726
   6        9.411745
   7        9.411745
   8       11.560790
 
  0.1052632E+00  0.1052632E+00  0.1052632E+00  0.2500000E-01
   1       -5.557813
   2        5.232802
   3        6.275521
   4        6.275521
   5        9.011603
   6        9.263429
   7        9.263429
   8       11.120469
 
  0.7894737E-01  0.7894737E-01  0.7894737E-01  0.2500000E-01
   1       -5.622851
   2        5.699435
   3        6.370815
   4        6.370815
   5        9.038116
   6        9.127599
   7        9.127599
   8       10.727651
 
  0.5263158E-01  0.5263158E-01  0.5263158E-01  0.2500000E-01
   1       -5.669481
   2        6.106539
   3        6.446956
   4        6.446956
   5        9.015052
   6        9.017646
   7        9.017647
   8       10.420270
 
  0.2631579E-01  0.2631579E-01  0.2631579E-01  0.2500000E-01
   1       -5.697481
   2        6.402933
   3        6.497130
   4        6.497130
   5        8.945659
   6        8.945659
   7        8.955340
   8       10.233074
 
  0.0000000E+00  0.0000000E+00  0.0000000E+00  0.2500000E-01
   1       -5.706818
   2        6.514714
   3        6.514725
   4        6.514725
   5        8.920531
   6        8.920544
   7        8.920544
   8       10.172685
 
  0.0000000E+00  0.0000000E+00  0.0000000E+00  0.2500000E-01
   1       -5.706818
   2        6.514714
   3        6.514725
   4        6.514725
   5        8.920531
   6        8.920544
   7        8.920544
   8       10.172685
 
  0.2631579E-01  0.2631579E-01  0.0000000E+00  0.2500000E-01
   1       -5.694364
   2        6.435704
   3        6.455881
   4        6.455887
   5        8.889588
   6        8.994795
   7        8.994804
   8       10.249725
 
  0.5263158E-01  0.5263158E-01  0.0000000E+00  0.2500000E-01
   1       -5.657067
   2        6.215911
   3        6.296811
   4        6.296819
   5        8.800526
   6        9.198680
   7        9.198689
   8       10.457097
 
  0.7894737E-01  0.7894737E-01  0.0000000E+00  0.2500000E-01
   1       -5.594805
   2        5.897175
   3        6.077556
   4        6.077563
   5        8.664310
   6        9.494546
   7        9.494555
   8       10.734979
 
  0.1052632E+00  0.1052632E+00  0.0000000E+00  0.2500000E-01
   1       -5.507787
   2        5.514256
   3        5.828084
   4        5.828091
   5        8.494174
   6        9.850637
   7        9.850646
   8       10.990160
 
  0.1315789E+00  0.1315789E+00  0.0000000E+00  0.2500000E-01
   1       -5.396122
   2        5.091736
   3        5.568241
   4        5.568248
   5        8.303342
   6       10.246516
   7       10.246525
   8       11.073248
 
  0.1578947E+00  0.1578947E+00  0.0000000E+00  0.2500000E-01
   1       -5.259975
   2        4.644074
   3        5.309740
   4        5.309747
   5        8.103119
   6       10.670852
   7       10.670862
   8       10.881033
 
  0.1842105E+00  0.1842105E+00  0.0000000E+00  0.2500000E-01
   1       -5.099562
   2        4.181396
   3        5.059656
   4        5.059662
   5        7.902571
   6       10.514229
   7       11.113797
   8       11.113807
 
  0.2105263E+00  0.2105263E+00  0.0000000E+00  0.2500000E-01
   1       -4.915077
   2        3.707759
   3        4.821064
   4        4.821071
   5        7.708846
   6       10.084967
   7       11.572378
   8       11.572388
 
  0.2368421E+00  0.2368421E+00  0.0000000E+00  0.2500000E-01
   1       -4.706946
   2        3.228696
   3        4.599520
   4        4.599526
   5        7.526958
   6        9.649970
   7       12.040888
   8       12.040899
 
  0.2631579E+00  0.2631579E+00  0.0000000E+00  0.2500000E-01
   1       -4.475478
   2        2.745881
   3        4.395609
   4        4.395615
   5        7.361181
   6        9.230823
   7       12.518303
   8       12.518314
 
  0.2894737E+00  0.2894737E+00  0.0000000E+00  0.2500000E-01
   1       -4.221108
   2        2.261502
   3        4.210720
   4        4.210726
   5        7.214711
   6        8.838541
   7       13.003107
   8       13.003119
 
  0.3157895E+00  0.3157895E+00  0.0000000E+00  0.2500000E-01
   1       -3.943926
   2        1.777539
   3        4.045937
   4        4.045944
   5        7.091111
   6        8.478785
   7       13.494793
   8       13.494805
 
  0.3421053E+00  0.3421053E+00  0.0000000E+00  0.2500000E-01
   1       -3.645110
   2        1.296025
   3        3.901922
   4        3.901928
   5        6.991385
   6        8.154588
   7       13.998012
   8       13.998020
 
  0.3684211E+00  0.3684211E+00  0.0000000E+00  0.2500000E-01
   1       -3.325208
   2        0.818658
   3        3.779416
   4        3.779423
   5        6.917432
   6        7.868086
   7       14.506182
   8       14.506189
 
  0.3947368E+00  0.3947368E+00  0.0000000E+00  0.2500000E-01
   1       -2.984875
   2        0.347529
   3        3.677925
   4        3.677931
   5        6.869585
   6        7.616969
   7       15.012583
   8       15.012590
 
  0.4210526E+00  0.4210526E+00  0.0000000E+00  0.2500000E-01
   1       -2.624870
   2       -0.115380
   3        3.599188
   4        3.599195
   5        6.850364
   6        7.403434
   7       15.521637
   8       15.521645
 
  0.4473684E+00  0.4473684E+00  0.0000000E+00  0.2500000E-01
   1       -2.246266
   2       -0.568966
   3        3.542688
   4        3.542694
   5        6.860813
   6        7.225622
   7       16.024312
   8       16.024320
 
  0.4736842E+00  0.4736842E+00  0.0000000E+00  0.2500000E-01
   1       -1.850057
   2       -1.009962
   3        3.508806
   4        3.508812
   5        6.902521
   6        7.083823
   7       16.496467
   8       16.496475
 
  0.5000000E+00  0.5000000E+00  0.0000000E+00  0.2500000E-01
   1       -1.437493
   2       -1.437493
   3        3.497501
   4        3.497507
   5        6.976473
   6        6.976489
   7       16.763479
   8       16.763489
