    2    2    1    1
  0.1956688E+02  0.3810853E-09  0.3810853E-09  0.3810853E-09  0.5000000E-15
  1.000000000000000E-004
  CAR 
 Si                                      
    8  100    8
 
  0.5000000E+00  0.5000000E+00  0.5000000E+00  0.1000000E-01
   1       -3.665316
   2       -1.013627
   3        4.849679
   4        4.849679
   5        7.695513
   6        9.414067
   7        9.414067
   8       13.828287
 
  0.4736842E+00  0.4736842E+00  0.4736842E+00  0.1000000E-01
   1       -3.706095
   2       -0.955421
   3        4.854727
   4        4.854727
   5        7.702933
   6        9.420222
   7        9.420222
   8       13.837999
 
  0.4473684E+00  0.4473684E+00  0.4473684E+00  0.1000000E-01
   1       -3.818614
   2       -0.790730
   3        4.869832
   4        4.869832
   5        7.719905
   6        9.438208
   7        9.438208
   8       13.865516
 
  0.4210526E+00  0.4210526E+00  0.4210526E+00  0.1000000E-01
   1       -3.981578
   2       -0.541375
   3        4.894917
   4        4.894917
   5        7.748495
   6        9.468378
   7        9.468378
   8       13.908531
 
  0.3947368E+00  0.3947368E+00  0.3947368E+00  0.1000000E-01
   1       -4.172511
   2       -0.229204
   3        4.930081
   4        4.930081
   5        7.787892
   6        9.504695
   7        9.504695
   8       13.961929
 
  0.3684211E+00  0.3684211E+00  0.3684211E+00  0.1000000E-01
   1       -4.376003
   2        0.130548
   3        4.974792
   4        4.974792
   5        7.838208
   6        9.544150
   7        9.544150
   8       14.015015
 
  0.3421053E+00  0.3421053E+00  0.3421053E+00  0.1000000E-01
   1       -4.581662
   2        0.525082
   3        5.029718
   4        5.029718
   5        7.899070
   6        9.583516
   7        9.583516
   8       14.037066
 
  0.3157895E+00  0.3157895E+00  0.3157895E+00  0.1000000E-01
   1       -4.782657
   2        0.947868
   3        5.094237
   4        5.094237
   5        7.969974
   6        9.615116
   7        9.615117
   8       13.913896
 
  0.2894737E+00  0.2894737E+00  0.2894737E+00  0.1000000E-01
   1       -4.974646
   2        1.393677
   3        5.168000
   4        5.168000
   5        8.050180
   6        9.630771
   7        9.630771
   8       13.627022
 
  0.2631579E+00  0.2631579E+00  0.2631579E+00  0.1000000E-01
   1       -5.154750
   2        1.858701
   3        5.250902
   4        5.250902
   5        8.138727
   6        9.622637
   7        9.622637
   8       13.392490
 
  0.2368421E+00  0.2368421E+00  0.2368421E+00  0.1000000E-01
   1       -5.321001
   2        2.339527
   3        5.341433
   4        5.341433
   5        8.234345
   6        9.580759
   7        9.580759
   8       12.969685
 
  0.2105263E+00  0.2105263E+00  0.2105263E+00  0.1000000E-01
   1       -5.472016
   2        2.832173
   3        5.439417
   4        5.439417
   5        8.334195
   6        9.505702
   7        9.505702
   8       12.516362
 
  0.1842105E+00  0.1842105E+00  0.1842105E+00  0.1000000E-01
   1       -5.606943
   2        3.332921
   3        5.541636
   4        5.541636
   5        8.433255
   6        9.397681
   7        9.397681
   8       12.046544
 
  0.1578947E+00  0.1578947E+00  0.1578947E+00  0.1000000E-01
   1       -5.724841
   2        3.838746
   3        5.646628
   4        5.646628
   5        8.531303
   6        9.265730
   7        9.265730
   8       11.574318
 
  0.1315789E+00  0.1315789E+00  0.1315789E+00  0.1000000E-01
   1       -5.825341
   2        4.340062
   3        5.751032
   4        5.751033
   5        8.620924
   6        9.121087
   7        9.121087
   8       11.109421
 
  0.1052632E+00  0.1052632E+00  0.1052632E+00  0.1000000E-01
   1       -5.908007
   2        4.827807
   3        5.850480
   4        5.850480
   5        8.692237
   6        8.976841
   7        8.976841
   8       10.665440
 
  0.7894737E-01  0.7894737E-01  0.7894737E-01  0.1000000E-01
   1       -5.972523
   2        5.285047
   3        5.940559
   4        5.940559
   5        8.731919
   6        8.846039
   7        8.846039
   8       10.267417
 
  0.5263158E-01  0.5263158E-01  0.5263158E-01  0.1000000E-01
   1       -6.018783
   2        5.681473
   3        6.011803
   4        6.011803
   5        8.724840
   6        8.741058
   7        8.741058
   8        9.953955
 
  0.2631579E-01  0.2631579E-01  0.2631579E-01  0.1000000E-01
   1       -6.046564
   2        5.967601
   3        6.058378
   4        6.058379
   5        8.672795
   6        8.672795
   7        8.678646
   8        9.763171
 
  0.0000000E+00  0.0000000E+00  0.0000000E+00  0.1000000E-01
   1       -6.055827
   2        6.074621
   3        6.074634
   4        6.074634
   5        8.649060
   6        8.649075
   7        8.649075
   8        9.702220
 
  0.0000000E+00  0.0000000E+00  0.0000000E+00  0.1000000E-01
   1       -6.055827
   2        6.074621
   3        6.074634
   4        6.074634
   5        8.649060
   6        8.649075
   7        8.649075
   8        9.702220
 
  0.2631579E-01  0.2631579E-01  0.0000000E+00  0.1000000E-01
   1       -6.043471
   2        5.995327
   3        6.020904
   4        6.020913
   5        8.618338
   6        8.718066
   7        8.718076
   8        9.779617
 
  0.5263158E-01  0.5263158E-01  0.0000000E+00  0.1000000E-01
   1       -6.006461
   2        5.774895
   3        5.873725
   4        5.873734
   5        8.529930
   6        8.909622
   7        8.909632
   8        9.988411
 
  0.7894737E-01  0.7894737E-01  0.0000000E+00  0.1000000E-01
   1       -5.944687
   2        5.455657
   3        5.667747
   4        5.667756
   5        8.394710
   6        9.191548
   7        9.191559
   8       10.271260
 
  0.1052632E+00  0.1052632E+00  0.0000000E+00  0.1000000E-01
   1       -5.858358
   2        5.072600
   3        5.430204
   4        5.430213
   5        8.225856
   6        9.534852
   7        9.534863
   8       10.545128
 
  0.1315789E+00  0.1315789E+00  0.0000000E+00  0.1000000E-01
   1       -5.747584
   2        4.650420
   3        5.180357
   4        5.180365
   5        8.036531
   6        9.919744
   7        9.919755
   8       10.681965
 
  0.1578947E+00  0.1578947E+00  0.0000000E+00  0.1000000E-01
   1       -5.612536
   2        4.203646
   3        4.930090
   4        4.930099
   5        7.837990
   6       10.334805
   7       10.334816
   8       10.563033
 
  0.1842105E+00  0.1842105E+00  0.0000000E+00  0.1000000E-01
   1       -5.453437
   2        3.742422
   3        4.686816
   4        4.686824
   5        7.639277
   6       10.244689
   7       10.769920
   8       10.769932
 
  0.2105263E+00  0.2105263E+00  0.0000000E+00  0.1000000E-01
   1       -5.270500
   2        3.270773
   3        4.453849
   4        4.453858
   5        7.447469
   6        9.840892
   7       11.221873
   8       11.221885
 
  0.2368421E+00  0.2368421E+00  0.0000000E+00  0.1000000E-01
   1       -5.064132
   2        2.794385
   3        4.237041
   4        4.237049
   5        7.267666
   6        9.419588
   7       11.684907
   8       11.684919
 
  0.2631579E+00  0.2631579E+00  0.0000000E+00  0.1000000E-01
   1       -4.834661
   2        2.314839
   3        4.037109
   4        4.037117
   5        7.104091
   6        9.007927
   7       12.157831
   8       12.157844
 
  0.2894737E+00  0.2894737E+00  0.0000000E+00  0.1000000E-01
   1       -4.582535
   2        1.834269
   3        3.855564
   4        3.855572
   5        6.959940
   6        8.619498
   7       12.639036
   8       12.639049
 
  0.3157895E+00  0.3157895E+00  0.0000000E+00  0.1000000E-01
   1       -4.307848
   2        1.354574
   3        3.693587
   4        3.693595
   5        6.838807
   6        8.261263
   7       13.127918
   8       13.127931
 
  0.3421053E+00  0.3421053E+00  0.0000000E+00  0.1000000E-01
   1       -4.011809
   2        0.877697
   3        3.551926
   4        3.551933
   5        6.741647
   6        7.936990
   7       13.629090
   8       13.629124
 
  0.3684211E+00  0.3684211E+00  0.0000000E+00  0.1000000E-01
   1       -3.694937
   2        0.405197
   3        3.431331
   4        3.431339
   5        6.670430
   6        7.649334
   7       14.135823
   8       14.135831
 
  0.3947368E+00  0.3947368E+00  0.0000000E+00  0.1000000E-01
   1       -3.357914
   2       -0.060943
   3        3.331295
   4        3.331303
   5        6.625370
   6        7.396246
   7       14.641238
   8       14.641263
 
  0.4210526E+00  0.4210526E+00  0.0000000E+00  0.1000000E-01
   1       -3.001500
   2       -0.518828
   3        3.253703
   4        3.253711
   5        6.609050
   6        7.180238
   7       15.149753
   8       15.149758
 
  0.4473684E+00  0.4473684E+00  0.0000000E+00  0.1000000E-01
   1       -2.626766
   2       -0.967470
   3        3.198003
   4        3.198011
   5        6.622486
   6        6.999564
   7       15.652216
   8       15.652227
 
  0.4736842E+00  0.4736842E+00  0.0000000E+00  0.1000000E-01
   1       -2.234701
   2       -1.403641
   3        3.164599
   4        3.164606
   5        6.667263
   6        6.854763
   7       16.124603
   8       16.124640
 
  0.5000000E+00  0.5000000E+00  0.0000000E+00  0.1000000E-01
   1       -1.826539
   2       -1.826538
   3        3.153453
   4        3.153460
   5        6.744321
   6        6.744338
   7       16.392327
   8       16.393481
 
  0.5000000E+00  0.5000000E+00  0.0000000E+00  0.1000000E-01
   1       -1.826539
   2       -1.826538
   3        3.153453
   4        3.153460
   5        6.744321
   6        6.744338
   7       16.392229
   8       16.392968
 
  0.5000000E+00  0.5131579E+00  0.1315789E-01  0.1000000E-01
   1       -1.825460
   2       -1.825459
   3        3.143800
   4        3.143808
   5        6.761697
   6        6.761714
   7       16.363571
   8       16.364464
 
  0.5000000E+00  0.5263158E+00  0.2631579E-01  0.1000000E-01
   1       -1.822243
   2       -1.822242
   3        3.115498
   4        3.115505
   5        6.813182
   6        6.813199
   7       16.270247
   8       16.270682
 
  0.5000000E+00  0.5394737E+00  0.3947368E-01  0.1000000E-01
   1       -1.816955
   2       -1.816954
   3        3.070383
   4        3.070391
   5        6.896980
   6        6.896997
   7       16.101537
   8       16.101759
 
  0.5000000E+00  0.5526316E+00  0.5263158E-01  0.1000000E-01
   1       -1.809705
   2       -1.809704
   3        3.011127
   4        3.011134
   5        7.010482
   6        7.010498
   7       15.862404
   8       15.863015
 
  0.5000000E+00  0.5657895E+00  0.6578947E-01  0.1000000E-01
   1       -1.800643
   2       -1.800642
   3        2.940839
   4        2.940846
   5        7.150675
   6        7.150691
   7       15.574267
   8       15.574334
 
  0.5000000E+00  0.5789474E+00  0.7894737E-01  0.1000000E-01
   1       -1.790009
   2       -1.790008
   3        2.862425
   4        2.862432
   5        7.314221
   6        7.314237
   7       15.249671
   8       15.249730
 
  0.5000000E+00  0.5921053E+00  0.9210526E-01  0.1000000E-01
   1       -1.777957
   2       -1.777956
   3        2.779446
   4        2.779453
   5        7.498789
   6        7.498805
   7       14.914706
   8       14.914782
 
  0.5000000E+00  0.6052632E+00  0.1052632E+00  0.1000000E-01
   1       -1.764753
   2       -1.764752
   3        2.694323
   4        2.694330
   5        7.701512
   6        7.701528
   7       14.570770
   8       14.570804
 
  0.5000000E+00  0.6184211E+00  0.1184211E+00  0.1000000E-01
   1       -1.750593
   2       -1.750592
   3        2.609614
   4        2.609620
   5        7.920443
   6        7.920459
   7       14.223008
   8       14.223040
 
  0.5000000E+00  0.6315789E+00  0.1315789E+00  0.1000000E-01
   1       -1.736227
   2       -1.736226
   3        2.527188
   4        2.527195
   5        8.153033
   6        8.153049
   7       13.872072
   8       13.872104
 
  0.5000000E+00  0.6447368E+00  0.1447368E+00  0.1000000E-01
   1       -1.721964
   2       -1.721962
   3        2.448628
   4        2.448635
   5        8.396640
   6        8.396662
   7       13.518934
   8       13.518969
 
  0.5000000E+00  0.6578947E+00  0.1578947E+00  0.1000000E-01
   1       -1.707913
   2       -1.707912
   3        2.376060
   4        2.376067
   5        8.652090
   6        8.652112
   7       13.170449
   8       13.170482
 
  0.5000000E+00  0.6710526E+00  0.1710526E+00  0.1000000E-01
   1       -1.694631
   2       -1.694630
   3        2.310517
   4        2.310524
   5        8.916663
   6        8.916686
   7       12.825552
   8       12.825584
 
  0.5000000E+00  0.6842105E+00  0.1842105E+00  0.1000000E-01
   1       -1.682532
   2       -1.682530
   3        2.253128
   4        2.253135
   5        9.188627
   6        9.188651
   7       12.485876
   8       12.485906
 
  0.5000000E+00  0.6973684E+00  0.1973684E+00  0.1000000E-01
   1       -1.672004
   2       -1.672002
   3        2.204847
   4        2.204853
   5        9.465617
   6        9.465641
   7       12.153669
   8       12.153698
 
  0.5000000E+00  0.7105263E+00  0.2105263E+00  0.1000000E-01
   1       -1.663400
   2       -1.663399
   3        2.166460
   4        2.166467
   5        9.743536
   6        9.743561
   7       11.832930
   8       11.832957
 
  0.5000000E+00  0.7236842E+00  0.2236842E+00  0.1000000E-01
   1       -1.657020
   2       -1.657018
   3        2.138584
   4        2.138591
   5       10.013061
   6       10.013088
   7       11.532897
   8       11.532921
 
  0.5000000E+00  0.7368421E+00  0.2368421E+00  0.1000000E-01
   1       -1.653090
   2       -1.653089
   3        2.121666
   4        2.121673
   5       10.246365
   6       10.246393
   7       11.281346
   8       11.281366
 
  0.5000000E+00  0.7500000E+00  0.2500000E+00  0.1000000E-01
   1       -1.652110
   2       -1.652108
   3        2.115461
   4        2.115468
   5       10.353270
   6       10.353302
   7       11.162248
   8       11.162266
 
  0.5000000E+00  0.7500000E+00  0.2500000E+00  0.1000000E-01
   1       -1.652110
   2       -1.652108
   3        2.115461
   4        2.115468
   5       10.353269
   6       10.353302
   7       11.162247
   8       11.162263
 
  0.4934211E+00  0.7500000E+00  0.2565789E+00  0.1000000E-01
   1       -1.711894
   2       -1.593060
   3        2.069956
   4        2.167228
   5       10.251865
   6       10.391009
   7       11.174267
   8       11.228938
 
  0.4868421E+00  0.7500000E+00  0.2631579E+00  0.1000000E-01
   1       -1.768357
   2       -1.539738
   3        2.026735
   4        2.227652
   5       10.069737
   6       10.410867
   7       11.271291
   8       11.316432
 
  0.4802632E+00  0.7500000E+00  0.2697368E+00  0.1000000E-01
   1       -1.821860
   2       -1.491894
   3        1.985441
   4        2.296532
   5        9.852041
   6       10.415286
   7       11.410702
   8       11.421912
 
  0.4736842E+00  0.7500000E+00  0.2763158E+00  0.1000000E-01
   1       -1.872167
   2       -1.449308
   3        1.946394
   4        2.373510
   5        9.621769
   6       10.409933
   7       11.541762
   8       11.571187
 
  0.4671053E+00  0.7500000E+00  0.2828947E+00  0.1000000E-01
   1       -1.919270
   2       -1.411758
   3        1.909645
   4        2.457899
   5        9.388534
   6       10.398329
   7       11.672327
   8       11.743576
 
  0.4605263E+00  0.7500000E+00  0.2894737E+00  0.1000000E-01
   1       -1.963161
   2       -1.378947
   3        1.875243
   4        2.548859
   5        9.156977
   6       10.383028
   7       11.810904
   8       11.923747
 
  0.4539474E+00  0.7500000E+00  0.2960526E+00  0.1000000E-01
   1       -2.003831
   2       -1.350535
   3        1.843230
   4        2.645384
   5        8.929802
   6       10.365795
   7       11.955560
   8       12.109620
 
  0.4473684E+00  0.7500000E+00  0.3026316E+00  0.1000000E-01
   1       -2.041273
   2       -1.326150
   3        1.813645
   4        2.746299
   5        8.708939
   6       10.347834
   7       12.104904
   8       12.300030
 
  0.4407895E+00  0.7500000E+00  0.3092105E+00  0.1000000E-01
   1       -2.075480
   2       -1.305277
   3        1.786524
   4        2.850556
   5        8.497141
   6       10.329977
   7       12.257889
   8       12.494346
 
  0.4342105E+00  0.7500000E+00  0.3157895E+00  0.1000000E-01
   1       -2.106448
   2       -1.287815
   3        1.761897
   4        2.955958
   5        8.293782
   6       10.312806
   7       12.413675
   8       12.691881
 
  0.4276316E+00  0.7500000E+00  0.3223684E+00  0.1000000E-01
   1       -2.134169
   2       -1.273253
   3        1.739793
   4        3.061111
   5        8.101742
   6       10.297411
   7       12.571968
   8       12.894961
 
  0.4210526E+00  0.7500000E+00  0.3289474E+00  0.1000000E-01
   1       -2.158647
   2       -1.261254
   3        1.720224
   4        3.163597
   5        7.922639
   6       10.282622
   7       12.730700
   8       13.096863
 
  0.4144737E+00  0.7500000E+00  0.3355263E+00  0.1000000E-01
   1       -2.179864
   2       -1.251498
   3        1.703230
   4        3.261384
   5        7.759240
   6       10.269548
   7       12.890411
   8       13.302238
 
  0.4078947E+00  0.7500000E+00  0.3421053E+00  0.1000000E-01
   1       -2.197790
   2       -1.243635
   3        1.688822
   4        3.351722
   5        7.613768
   6       10.258273
   7       13.049722
   8       13.510457
 
  0.4013158E+00  0.7500000E+00  0.3486842E+00  0.1000000E-01
   1       -2.212488
   2       -1.237593
   3        1.677012
   4        3.431628
   5        7.488953
   6       10.248901
   7       13.206730
   8       13.719485
 
  0.3947368E+00  0.7500000E+00  0.3552632E+00  0.1000000E-01
   1       -2.223923
   2       -1.233096
   3        1.667814
   4        3.498093
   5        7.387702
   6       10.241532
   7       13.358547
   8       13.929811
 
  0.3881579E+00  0.7500000E+00  0.3618421E+00  0.1000000E-01
   1       -2.232093
   2       -1.229991
   3        1.661235
   4        3.548183
   5        7.312845
   6       10.236227
   7       13.498564
   8       14.140648
 
  0.3815789E+00  0.7500000E+00  0.3684211E+00  0.1000000E-01
   1       -2.237063
   2       -1.228289
   3        1.657263
   4        3.579364
   5        7.266497
   6       10.232945
   7       13.609321
   8       14.273291
 
  0.3750000E+00  0.7500000E+00  0.3750000E+00  0.1000000E-01
   1       -2.238707
   2       -1.227713
   3        1.655791
   4        3.589853
   5        7.250444
   6       10.231701
   7       13.653601
   8       14.226006
 
  0.3750000E+00  0.7500000E+00  0.3750000E+00  0.1000000E-01
   1       -2.238707
   2       -1.227713
   3        1.655791
   4        3.589853
   5        7.250444
   6       10.231701
   7       13.653452
   8       14.224620
 
  0.3552632E+00  0.7105263E+00  0.3552632E+00  0.1000000E-01
   1       -2.441364
   2       -1.024410
   3        1.556668
   4        3.732533
   5        7.417480
   6       11.046632
   7       13.163300
   8       13.738696
 
  0.3355263E+00  0.6710526E+00  0.3355263E+00  0.1000000E-01
   1       -2.686683
   2       -0.792231
   3        1.540774
   4        3.891838
   5        7.603352
   6       11.838175
   7       12.690787
   8       13.325975
 
  0.3157895E+00  0.6315789E+00  0.3157895E+00  0.1000000E-01
   1       -2.963250
   2       -0.531180
   3        1.601285
   4        4.065735
   5        7.805954
   6       12.240806
   7       12.323619
   8       13.269273
 
  0.2960526E+00  0.5921053E+00  0.2960526E+00  0.1000000E-01
   1       -3.259321
   2       -0.241421
   3        1.727940
   4        4.251867
   5        8.022019
   6       11.814998
   7       12.131396
   8       13.011525
 
  0.2763158E+00  0.5526316E+00  0.2763158E+00  0.1000000E-01
   1       -3.564111
   2        0.076862
   3        1.910366
   4        4.446771
   5        8.246016
   6       11.411344
   7       11.769702
   8       12.701564
 
  0.2565789E+00  0.5131579E+00  0.2565789E+00  0.1000000E-01
   1       -3.867947
   2        0.422589
   3        2.139617
   4        4.647600
   5        8.470853
   6       11.036407
   7       11.401160
   8       12.431794
 
  0.2368421E+00  0.4736842E+00  0.2368421E+00  0.1000000E-01
   1       -4.163992
   2        0.795537
   3        2.408369
   4        4.848687
   5        8.686685
   6       10.686682
   7       11.048402
   8       12.201033
 
  0.2171053E+00  0.4342105E+00  0.2171053E+00  0.1000000E-01
   1       -4.446944
   2        1.195247
   3        2.711059
   4        5.045928
   5        8.881139
   6       10.363852
   7       10.717949
   8       12.025782
 
  0.1973684E+00  0.3947368E+00  0.1973684E+00  0.1000000E-01
   1       -4.713195
   2        1.620662
   3        3.041170
   4        5.234728
   5        9.040135
   6       10.068927
   7       10.410342
   8       11.909953
 
  0.1776316E+00  0.3552632E+00  0.1776316E+00  0.1000000E-01
   1       -4.959470
   2        2.070408
   3        3.393650
   4        5.409032
   5        9.149118
   6        9.799406
   7       10.123043
   8       11.851990
 
  0.1578947E+00  0.3157895E+00  0.1578947E+00  0.1000000E-01
   1       -5.183742
   2        2.544287
   3        3.763843
   4        5.565481
   5        9.207729
   6        9.559648
   7        9.861400
   8       11.839619
 
  0.1381579E+00  0.2763158E+00  0.1381579E+00  0.1000000E-01
   1       -5.384457
   2        3.037772
   3        4.144007
   4        5.700086
   5        9.217139
   6        9.346823
   7        9.623265
   8       11.820732
 
  0.1184211E+00  0.2368421E+00  0.1184211E+00  0.1000000E-01
   1       -5.560446
   2        3.548609
   3        4.527171
   4        5.812508
   5        9.162120
   6        9.188930
   7        9.403628
   8       11.712684
 
  0.9868421E-01  0.1973684E+00  0.9868421E-01  0.1000000E-01
   1       -5.710598
   2        4.071650
   3        4.903496
   4        5.901315
   5        9.005392
   6        9.135453
   7        9.207667
   8       11.429734
 
  0.7894737E-01  0.1578947E+00  0.7894737E-01  0.1000000E-01
   1       -5.834256
   2        4.598147
   3        5.260837
   4        5.968907
   5        8.877212
   6        9.033718
   7        9.064742
   8       10.990044
 
  0.5921053E-01  0.1184211E+00  0.5921053E-01  0.1000000E-01
   1       -5.930937
   2        5.110940
   3        5.580264
   4        6.017656
   5        8.777443
   6        8.882823
   7        8.974571
   8       10.499811
 
  0.3947368E-01  0.7894737E-01  0.3947368E-01  0.1000000E-01
   1       -6.000275
   2        5.577680
   3        5.839898
   4        6.050151
   5        8.706141
   6        8.760771
   7        8.856121
   8       10.070562
 
  0.1973684E-01  0.3947368E-01  0.1973684E-01  0.1000000E-01
   1       -6.041928
   2        5.934543
   3        6.013478
   4        6.068647
   5        8.663343
   6        8.678552
   7        8.719255
   8        9.793158
 
  0.0000000E+00  0.0000000E+00  0.0000000E+00  0.1000000E-01
   1       -6.055827
   2        6.074621
   3        6.074634
   4        6.074634
   5        8.649060
   6        8.649075
   7        8.649075
   8        9.702220
