 vasp.5.2.2 15Apr09 complex 
 executed on             LinuxIFC date 2010.10.11  12:09:25
 running on    4 nodes
 distr:  one band on    1 nodes,    4 groups


--------------------------------------------------------------------------------------------------------


 INCAR:
 POTCAR:   PAW_PBE Si 05Jan2001                   
 POTCAR:   PAW_PBE Si 05Jan2001                   
   VRHFIN =Si: s2p2                                                             
   LEXCH  = PE                                                                  
   EATOM  =   103.0669 eV,    7.5752 Ry                                         
                                                                                
   TITEL  = PAW_PBE Si 05Jan2001                                                
   LULTRA =        F    use ultrasoft PP ?                                      
   IUNSCR =        1    unscreen: 0-lin 1-nonlin 2-no                           
   RPACOR =    1.500    partial core radius                                     
   POMASS =   28.085; ZVAL   =    4.000    mass and valenz                      
   RCORE  =    1.900    outmost cutoff radius                                   
   RWIGS  =    2.480; RWIGS  =    1.312    wigner-seitz radius (au A)           
   ENMAX  =  245.345; ENMIN  =  184.009 eV                                      
   ICORE  =        2    local potential                                         
   LCOR   =        T    correct aug charges                                     
   LPAW   =        T    paw PP                                                  
   EAUG   =  322.069                                                            
   DEXC   =    -.007                                                            
   RMAX   =    2.944    core radius for proj-oper                               
   RAUG   =    1.300    factor for augmentation sphere                          
   RDEP   =    1.993    radius for radial grids                                 
   QCUT   =   -4.246; QGAM   =    8.493    optimization parameters              
                                                                                
   Description                                                                  
     l     E      TYP  RCUT    TYP  RCUT                                        
     0   .000     23  1.900                                                     
     0   .000     23  1.900                                                     
     1   .000     23  1.900                                                     
     1   .000     23  1.900                                                     
     2   .000      7  1.900                                                     
  local pseudopotential read in
  partial core-charges read in
  atomic valenz-charges read in
  non local Contribution for L=           0  read in
    real space projection operators read in
  non local Contribution for L=           0  read in
    real space projection operators read in
  non local Contribution for L=           1  read in
    real space projection operators read in
  non local Contribution for L=           1  read in
    real space projection operators read in
    PAW grid and wavefunctions read in
 
   number of l-projection  operators is LMAX  =           4
   number of lm-projection operators is LMMAX =           8
 
 PAW_PBE Si 05Jan2001                   :
 energy of atom  1       EATOM= -103.0669
 kinetic energy error for atom=    0.0056 (will be added to EATOM!!)
 
 
 POSCAR: Si                                      
  positions in direct lattice
  No initial velocities read in
 exchange correlation table for  LEXCH =        8
   RHO(1)=    0.500       N(1)  =     2000
   RHO(2)=  100.500       N(2)  =     4000
 


--------------------------------------------------------------------------------------------------------


 ion  position               nearest neighbor table
   1  0.000  0.000  0.000-   2 2.33   2 2.33   2 2.33   2 2.33
   2  0.250  0.250  0.250-   1 2.33   1 2.33   1 2.33   1 2.33
 
  LATTYP: Found a face centered cubic cell.
 ALAT       =     5.3893600000
  
  Lattice vectors:
  
 A1 = (   0.0000000000,   2.6946800000,   2.6946800000)
 A2 = (   2.6946800000,   0.0000000000,   2.6946800000)
 A3 = (   2.6946800000,   2.6946800000,   0.0000000000)
 Subroutine PRICEL returns:
 Original cell was already a primitive cell.
 

Analysis of symmetry for initial positions (statically):

 Routine SETGRP: Setting up the symmetry group for a 
 face centered cubic supercell.


 Subroutine GETGRP returns: Found 48 space group operations
 (whereof 24 operations were pure point group operations)
 out of a pool of 48 trial point group operations.


The static configuration has the point symmetry T_d .
 The point group associated with its full space group is O_h .

Analysis of symmetry for dynamics (positions and initial velocities):

 Subroutine DYNSYM returns: Found 48 space group operations
 (whereof 24 operations were pure point group operations)
 out of a pool of 48 trial space group operations
 (whereof 24 operations were pure point group operations)
 and found also     1 'primitive' translations


The dynamic configuration has the point symmetry T_d .
 The point group associated with its full space group is O_h .
 
 
 KPOINTS: k-points along high symmetry lines      
  interpolating k-points between supplied coordinates
  k-points in cartesian coordinates


--------------------------------------------------------------------------------------------------------




 Dimension of arrays:
   k-points           NKPTS =    100   k-points in BZ     NKDIM =    100   number of bands    NBANDS=      8
   number of dos      NEDOS =    301   number of ions     NIONS =      2
   non local maximal  LDIM  =      4   non local SUM 2l+1 LMDIM =      8
   total plane-waves  NPLWV =   4096
   max r-space proj   IRMAX =      1   max aug-charges    IRDMAX=   3699
   dimension x,y,z NGX =    16 NGY =   16 NGZ =   16
   dimension x,y,z NGXF=    32 NGYF=   32 NGZF=   32
   support grid    NGXF=    32 NGYF=   32 NGZF=   32
   ions per type =               2
 NGX,Y,Z   is equivalent  to a cutoff of   6.98,  6.98,  6.98 a.u.
 NGXF,Y,Z  is equivalent  to a cutoff of  13.96, 13.96, 13.96 a.u.


 I would recommend the setting:
   dimension x,y,z NGX =    15 NGY =   15 NGZ =   15
 SYSTEM =  Si                                      
 POSCAR =  Si                                      

 Startparameter for this run:
   NWRITE =      2    write-flag & timer
   PREC   = normal    medium, high low
   ISTART =      0    job   : 0-new  1-cont  2-samecut
   ICHARG =     11    charge: 1-file 2-atom 10-const
   ISPIN  =      1    spin polarized calculation?
   LNONCOLLINEAR =      F non collinear calculations
   LSORBIT =      F    spin-orbit coupling
   INIWAV =      1    electr: 0-lowe 1-rand  2-diag
   LASPH  =      F    aspherical Exc in radial PAW
   METAGGA=      F    non-selfconsistent MetaGGA calc.

 Electronic Relaxation 1
   ENCUT  =  245.0 eV  18.01 Ry    4.24 a.u.   4.86  4.86  4.86*2*pi/ulx,y,z
   ENINI  =  245.0     initial cutoff
   ENAUG  =  322.1 eV  augmentation charge cutoff
   NELM   =     60;   NELMIN=  6; NELMDL= -5     # of ELM steps 
   EDIFF  = 0.1E-05   stopping-criterion for ELM
   LREAL  =      F    real-space projection
   LCOMPAT=      F    compatible to vasp.4.4
   LREAL_COMPAT= F    compatible to vasp.4.5.1-3
   GGA_COMPAT  = T    GGA compatible to vasp.4.4-vasp.4.6
   LMAXPAW     = -100 max onsite density
   LMAXMIX     =    2 max onsite mixed and CHGCAR
   VOSKOWN=      0    Vosko Wilk Nusair interpolation
   ROPT   =    0.00000
 Ionic relaxation
   EDIFFG = 0.1E-04   stopping-criterion for IOM
   NSW    =      0    number of steps for IOM
   NBLOCK =      1;   KBLOCK =      1    inner block; outer block 
   IBRION =     -1    ionic relax: 0-MD 1-quasi-New 2-CG
   NFREE  =      0    steps in history (QN), initial steepest desc. (CG)
   ISIF   =      2    stress and relaxation
   IWAVPR =     10    prediction:  0-non 1-charg 2-wave 3-comb
   ISYM   =      2    0-nonsym 1-usesym 2-fastsym
   LCORR  =      T    Harris-Foulkes like correction to forces

   POTIM  = 0.5000    time-step for ionic-motion
   TEIN   =    0.0    initial temperature
   TEBEG  =    0.0;   TEEND  =   0.0 temperature during run
   SMASS  =  -3.00    Nose mass-parameter (am)
   estimated Nose-frequenzy (Omega)   =  0.10E-29 period in steps =****** mass=  -0.332E-27a.u.
   NPACO  =    256;   APACO  = 16.0  distance and # of slots for P.C.
   PSTRESS=    0.0 pullay stress

  Mass of Ions in am
   POMASS =  28.09
  Ionic Valenz
   ZVAL   =   4.00
  Atomic Wigner-Seitz radii
   RWIGS  =  -1.00
   NELECT =       8.0000    total number of electrons
   NUPDOWN=      -1.0000    fix difference up-down

 DOS related values:
   EMIN   =  10.00;   EMAX   =-10.00  energy-range for DOS
   EFERMI =   0.00
   ISMEAR =     2;   SIGMA  =   0.05  broadening in eV -4-tet -1-fermi 0-gaus

 Electronic relaxation 2 (details)
   IALGO  =     38    algorithm
   LDIAG  =      T    sub-space diagonalisation
   IMIX   =      4    mixing-type and parameters
     AMIX     =   0.40;   BMIX     =  1.00
     AMIX_MAG =   1.60;   BMIX_MAG =  1.00
     AMIN     =   0.10
     WC   =   100.;   INIMIX=   1;  MIXPRE=   1

 Intra band minimization:
   WEIMIN = 0.0000     energy-eigenvalue tresh-hold
   EBREAK =  0.31E-07  absolut break condition
   DEPER  =   0.30     relativ break condition  

   TIME   =   0.40     timestep for ELM

  volume/ion in A,a.u.               =      19.57       132.04
  Fermi-wavevector in a.u.,A,eV,Ry     =   0.964394  1.822440 12.654165  0.930055
  Thomas-Fermi vector in A             =   2.094021
 
 Write flags
   LWAVE  =      T    write WAVECAR
   LCHARG =      T    write CHGCAR
   LVTOT  =      F    write LOCPOT, local potential
   LELF   =      F    write electronic localiz. function (ELF)
   LORBIT =      0    0 simple, 1 ext, 2 COOP (PROOUT)


 Dipole corrections
   LMONO  =      F    monopole corrections only (constant potential shift)
   LDIPOL =      F    correct potential (dipole corrections)
   IDIPOL =      0    1-x, 2-y, 3-z, 4-all directions 
   EPSILON=  1.0000000 bulk dielectric constant

 Exchange correlation treatment:
   GGA     =    --    GGA type
   LEXCH   =     8    internal setting for exchange type
   VOSKOWN=      0    Vosko Wilk Nusair interpolation
   LHFCALC =     F    Hartree Fock is set to
   LHFONE  =     F    Hartree Fock one center treatment
   AEXX    =    0.0000 exact exchange contribution

 Linear response parameters
   LEPSILON=     F    determine dielectric tensor
   LRPA    =     F    only Hartree local field effects (RPA)
   LNABLA  =     F    use nabla operator in PAW spheres
   LVEL    =     F    velocity operator in full k-point grid
   LINTERFAST=   F  fast interpolation
   KINTER  =     0    interpolate to denser k-point grid
   CSHIFT  =0.1000    complex shift for real part using Kramers Kronig
   OMEGAMAX=  -1.0    maximum frequency

 Orbital magnetization related:
   ORBITALMAG=     F  switch on orbital magnetization
   LCHIMAG   =     F  perturbation theory with respect to B field



--------------------------------------------------------------------------------------------------------


 Static calculation
 charge density and potential remain constant during run
 non-spin polarized calculation
 Variant of blocked Davidson
 Davidson routine will perform the subspace rotation
 perform sub-space diagonalisation
    after iterative eigenvector-optimisation
 no mixing
 using additional bands            4
 reciprocal scheme for non local part
 use partial core corrections
 calculate Harris-corrections to forces 
   (improved forces if not selfconsistent)
 use gradient corrections 
 WARNING: stress and forces are not correct
  (second derivative of E(xc) not defined)
 use of overlap-Matrix (Vanderbilt PP)
 Methfessel and Paxton  Order N= 2 SIGMA  =   0.05


--------------------------------------------------------------------------------------------------------


  energy-cutoff  :      245.00
  volume of cell :       39.13
      direct lattice vectors                 reciprocal lattice vectors
     0.000000000  2.694680000  2.694680000    -0.185550789  0.185550789  0.185550789
     2.694680000  0.000000000  2.694680000     0.185550789 -0.185550789  0.185550789
     2.694680000  2.694680000  0.000000000     0.185550789  0.185550789 -0.185550789

  length of vectors
     3.810853002  3.810853002  3.810853002     0.321383394  0.321383394  0.321383394


 
 k-points in units of 2pi/SCALE and weight: k-points along high symmetry lines      
   0.50000000  0.50000000  0.50000000       0.010
   0.47368421  0.47368421  0.47368421       0.010
   0.44736842  0.44736842  0.44736842       0.010
   0.42105263  0.42105263  0.42105263       0.010
   0.39473684  0.39473684  0.39473684       0.010
   0.36842105  0.36842105  0.36842105       0.010
   0.34210526  0.34210526  0.34210526       0.010
   0.31578947  0.31578947  0.31578947       0.010
   0.28947368  0.28947368  0.28947368       0.010
   0.26315789  0.26315789  0.26315789       0.010
   0.23684211  0.23684211  0.23684211       0.010
   0.21052632  0.21052632  0.21052632       0.010
   0.18421053  0.18421053  0.18421053       0.010
   0.15789474  0.15789474  0.15789474       0.010
   0.13157895  0.13157895  0.13157895       0.010
   0.10526316  0.10526316  0.10526316       0.010
   0.07894737  0.07894737  0.07894737       0.010
   0.05263158  0.05263158  0.05263158       0.010
   0.02631579  0.02631579  0.02631579       0.010
   0.00000000  0.00000000  0.00000000       0.010
   0.00000000  0.00000000  0.00000000       0.010
   0.00000000  0.00000000  0.05263158       0.010
   0.00000000  0.00000000  0.10526316       0.010
   0.00000000  0.00000000  0.15789474       0.010
   0.00000000  0.00000000  0.21052632       0.010
   0.00000000  0.00000000  0.26315789       0.010
   0.00000000  0.00000000  0.31578947       0.010
   0.00000000  0.00000000  0.36842105       0.010
   0.00000000  0.00000000  0.42105263       0.010
   0.00000000  0.00000000  0.47368421       0.010
   0.00000000  0.00000000  0.52631579       0.010
   0.00000000  0.00000000  0.57894737       0.010
   0.00000000  0.00000000  0.63157895       0.010
   0.00000000  0.00000000  0.68421053       0.010
   0.00000000  0.00000000  0.73684211       0.010
   0.00000000  0.00000000  0.78947368       0.010
   0.00000000  0.00000000  0.84210526       0.010
   0.00000000  0.00000000  0.89473684       0.010
   0.00000000  0.00000000  0.94736842       0.010
   0.00000000  0.00000000  1.00000000       0.010
   0.00000000  0.00000000  1.00000000       0.010
   0.02631579  0.00000000  1.00000000       0.010
   0.05263158  0.00000000  1.00000000       0.010
   0.07894737  0.00000000  1.00000000       0.010
   0.10526316  0.00000000  1.00000000       0.010
   0.13157895  0.00000000  1.00000000       0.010
   0.15789474  0.00000000  1.00000000       0.010
   0.18421053  0.00000000  1.00000000       0.010
   0.21052632  0.00000000  1.00000000       0.010
   0.23684211  0.00000000  1.00000000       0.010
   0.26315789  0.00000000  1.00000000       0.010
   0.28947368  0.00000000  1.00000000       0.010
   0.31578947  0.00000000  1.00000000       0.010
   0.34210526  0.00000000  1.00000000       0.010
   0.36842105  0.00000000  1.00000000       0.010
   0.39473684  0.00000000  1.00000000       0.010
   0.42105263  0.00000000  1.00000000       0.010
   0.44736842  0.00000000  1.00000000       0.010
   0.47368421  0.00000000  1.00000000       0.010
   0.50000000  0.00000000  1.00000000       0.010
   0.50000000  0.00000000  1.00000000       0.010
   0.51315789  0.00000000  0.98684211       0.010
   0.52631579  0.00000000  0.97368421       0.010
   0.53947368  0.00000000  0.96052632       0.010
   0.55263158  0.00000000  0.94736842       0.010
   0.56578947  0.00000000  0.93421053       0.010
   0.57894737  0.00000000  0.92105263       0.010
   0.59210526  0.00000000  0.90789474       0.010
   0.60526316  0.00000000  0.89473684       0.010
   0.61842105  0.00000000  0.88157895       0.010
   0.63157895  0.00000000  0.86842105       0.010
   0.64473684  0.00000000  0.85526316       0.010
   0.65789474  0.00000000  0.84210526       0.010
   0.67105263  0.00000000  0.82894737       0.010
   0.68421053  0.00000000  0.81578947       0.010
   0.69736842  0.00000000  0.80263158       0.010
   0.71052632  0.00000000  0.78947368       0.010
   0.72368421  0.00000000  0.77631579       0.010
   0.73684211  0.00000000  0.76315789       0.010
   0.75000000  0.00000000  0.75000000       0.010
   0.75000000  0.00000000  0.75000000       0.010
   0.71052632  0.00000000  0.71052632       0.010
   0.67105263  0.00000000  0.67105263       0.010
   0.63157895  0.00000000  0.63157895       0.010
   0.59210526  0.00000000  0.59210526       0.010
   0.55263158  0.00000000  0.55263158       0.010
   0.51315789  0.00000000  0.51315789       0.010
   0.47368421  0.00000000  0.47368421       0.010
   0.43421053  0.00000000  0.43421053       0.010
   0.39473684  0.00000000  0.39473684       0.010
   0.35526316  0.00000000  0.35526316       0.010
   0.31578947  0.00000000  0.31578947       0.010
   0.27631579  0.00000000  0.27631579       0.010
   0.23684211  0.00000000  0.23684211       0.010
   0.19736842  0.00000000  0.19736842       0.010
   0.15789474  0.00000000  0.15789474       0.010
   0.11842105  0.00000000  0.11842105       0.010
   0.07894737  0.00000000  0.07894737       0.010
   0.03947368  0.00000000  0.03947368       0.010
   0.00000000  0.00000000  0.00000000       0.010
 
 k-points in reciprocal lattice and weights: k-points along high symmetry lines      
   0.50000000  0.50000000  0.50000000       0.010
   0.47368421  0.47368421  0.47368421       0.010
   0.44736842  0.44736842  0.44736842       0.010
   0.42105263  0.42105263  0.42105263       0.010
   0.39473684  0.39473684  0.39473684       0.010
   0.36842105  0.36842105  0.36842105       0.010
   0.34210526  0.34210526  0.34210526       0.010
   0.31578947  0.31578947  0.31578947       0.010
   0.28947368  0.28947368  0.28947368       0.010
   0.26315789  0.26315789  0.26315789       0.010
   0.23684211  0.23684211  0.23684211       0.010
   0.21052632  0.21052632  0.21052632       0.010
   0.18421053  0.18421053  0.18421053       0.010
   0.15789474  0.15789474  0.15789474       0.010
   0.13157895  0.13157895  0.13157895       0.010
   0.10526316  0.10526316  0.10526316       0.010
   0.07894737  0.07894737  0.07894737       0.010
   0.05263158  0.05263158  0.05263158       0.010
   0.02631579  0.02631579  0.02631579       0.010
   0.00000000  0.00000000  0.00000000       0.010
   0.00000000  0.00000000  0.00000000       0.010
   0.02631579  0.02631579  0.00000000       0.010
   0.05263158  0.05263158  0.00000000       0.010
   0.07894737  0.07894737  0.00000000       0.010
   0.10526316  0.10526316  0.00000000       0.010
   0.13157895  0.13157895  0.00000000       0.010
   0.15789474  0.15789474  0.00000000       0.010
   0.18421053  0.18421053  0.00000000       0.010
   0.21052632  0.21052632  0.00000000       0.010
   0.23684211  0.23684211  0.00000000       0.010
   0.26315789  0.26315789  0.00000000       0.010
   0.28947368  0.28947368  0.00000000       0.010
   0.31578947  0.31578947  0.00000000       0.010
   0.34210526  0.34210526  0.00000000       0.010
   0.36842105  0.36842105  0.00000000       0.010
   0.39473684  0.39473684  0.00000000       0.010
   0.42105263  0.42105263  0.00000000       0.010
   0.44736842  0.44736842  0.00000000       0.010
   0.47368421  0.47368421  0.00000000       0.010
   0.50000000  0.50000000  0.00000000       0.010
   0.50000000  0.50000000  0.00000000       0.010
   0.50000000  0.51315789  0.01315789       0.010
   0.50000000  0.52631579  0.02631579       0.010
   0.50000000  0.53947368  0.03947368       0.010
   0.50000000  0.55263158  0.05263158       0.010
   0.50000000  0.56578947  0.06578947       0.010
   0.50000000  0.57894737  0.07894737       0.010
   0.50000000  0.59210526  0.09210526       0.010
   0.50000000  0.60526316  0.10526316       0.010
   0.50000000  0.61842105  0.11842105       0.010
   0.50000000  0.63157895  0.13157895       0.010
   0.50000000  0.64473684  0.14473684       0.010
   0.50000000  0.65789474  0.15789474       0.010
   0.50000000  0.67105263  0.17105263       0.010
   0.50000000  0.68421053  0.18421053       0.010
   0.50000000  0.69736842  0.19736842       0.010
   0.50000000  0.71052632  0.21052632       0.010
   0.50000000  0.72368421  0.22368421       0.010
   0.50000000  0.73684211  0.23684211       0.010
   0.50000000  0.75000000  0.25000000       0.010
   0.50000000  0.75000000  0.25000000       0.010
   0.49342105  0.75000000  0.25657895       0.010
   0.48684211  0.75000000  0.26315789       0.010
   0.48026316  0.75000000  0.26973684       0.010
   0.47368421  0.75000000  0.27631579       0.010
   0.46710526  0.75000000  0.28289474       0.010
   0.46052632  0.75000000  0.28947368       0.010
   0.45394737  0.75000000  0.29605263       0.010
   0.44736842  0.75000000  0.30263158       0.010
   0.44078947  0.75000000  0.30921053       0.010
   0.43421053  0.75000000  0.31578947       0.010
   0.42763158  0.75000000  0.32236842       0.010
   0.42105263  0.75000000  0.32894737       0.010
   0.41447368  0.75000000  0.33552632       0.010
   0.40789474  0.75000000  0.34210526       0.010
   0.40131579  0.75000000  0.34868421       0.010
   0.39473684  0.75000000  0.35526316       0.010
   0.38815789  0.75000000  0.36184211       0.010
   0.38157895  0.75000000  0.36842105       0.010
   0.37500000  0.75000000  0.37500000       0.010
   0.37500000  0.75000000  0.37500000       0.010
   0.35526316  0.71052632  0.35526316       0.010
   0.33552632  0.67105263  0.33552632       0.010
   0.31578947  0.63157895  0.31578947       0.010
   0.29605263  0.59210526  0.29605263       0.010
   0.27631579  0.55263158  0.27631579       0.010
   0.25657895  0.51315789  0.25657895       0.010
   0.23684211  0.47368421  0.23684211       0.010
   0.21710526  0.43421053  0.21710526       0.010
   0.19736842  0.39473684  0.19736842       0.010
   0.17763158  0.35526316  0.17763158       0.010
   0.15789474  0.31578947  0.15789474       0.010
   0.13815789  0.27631579  0.13815789       0.010
   0.11842105  0.23684211  0.11842105       0.010
   0.09868421  0.19736842  0.09868421       0.010
   0.07894737  0.15789474  0.07894737       0.010
   0.05921053  0.11842105  0.05921053       0.010
   0.03947368  0.07894737  0.03947368       0.010
   0.01973684  0.03947368  0.01973684       0.010
   0.00000000  0.00000000  0.00000000       0.010
 
 position of ions in fractional coordinates (direct lattice) 
   0.00000000  0.00000000  0.00000000
   0.25000000  0.25000000  0.25000000
 
 position of ions in cartesian coordinates  (Angst):
   0.00000000  0.00000000  0.00000000
   1.34734000  1.34734000  1.34734000
 


--------------------------------------------------------------------------------------------------------


 k-point  1 :  0.50000.50000.5000  plane waves:     344
 k-point  2 :  0.47370.47370.4737  plane waves:     341
 k-point  3 :  0.44740.44740.4474  plane waves:     341
 k-point  4 :  0.42110.42110.4211  plane waves:     344
 k-point  5 :  0.39470.39470.3947  plane waves:     344
 k-point  6 :  0.36840.36840.3684  plane waves:     344
 k-point  7 :  0.34210.34210.3421  plane waves:     344
 k-point  8 :  0.31580.31580.3158  plane waves:     344
 k-point  9 :  0.28950.28950.2895  plane waves:     344
 k-point 10 :  0.26320.26320.2632  plane waves:     338
 k-point 11 :  0.23680.23680.2368  plane waves:     338
 k-point 12 :  0.21050.21050.2105  plane waves:     332
 k-point 13 :  0.18420.18420.1842  plane waves:     335
 k-point 14 :  0.15790.15790.1579  plane waves:     335
 k-point 15 :  0.13160.13160.1316  plane waves:     335
 k-point 16 :  0.10530.10530.1053  plane waves:     335
 k-point 17 :  0.07890.07890.0789  plane waves:     332
 k-point 18 :  0.05260.05260.0526  plane waves:     332
 k-point 19 :  0.02630.02630.0263  plane waves:     331
 k-point 20 :  0.00000.00000.0000  plane waves:     331
 k-point 21 :  0.00000.00000.0000  plane waves:     331
 k-point 22 :  0.02630.02630.0000  plane waves:     331
 k-point 23 :  0.05260.05260.0000  plane waves:     335
 k-point 24 :  0.07890.07890.0000  plane waves:     335
 k-point 25 :  0.10530.10530.0000  plane waves:     335
 k-point 26 :  0.13160.13160.0000  plane waves:     335
 k-point 27 :  0.15790.15790.0000  plane waves:     335
 k-point 28 :  0.18420.18420.0000  plane waves:     335
 k-point 29 :  0.21050.21050.0000  plane waves:     343
 k-point 30 :  0.23680.23680.0000  plane waves:     343
 k-point 31 :  0.26320.26320.0000  plane waves:     343
 k-point 32 :  0.28950.28950.0000  plane waves:     343
 k-point 33 :  0.31580.31580.0000  plane waves:     339
 k-point 34 :  0.34210.34210.0000  plane waves:     335
 k-point 35 :  0.36840.36840.0000  plane waves:     327
 k-point 36 :  0.39470.39470.0000  plane waves:     335
 k-point 37 :  0.42110.42110.0000  plane waves:     335
 k-point 38 :  0.44740.44740.0000  plane waves:     342
 k-point 39 :  0.47370.47370.0000  plane waves:     342
 k-point 40 :  0.50000.50000.0000  plane waves:     342
 k-point 41 :  0.50000.50000.0000  plane waves:     342
 k-point 42 :  0.50000.51320.0132  plane waves:     342
 k-point 43 :  0.50000.52630.0263  plane waves:     342
 k-point 44 :  0.50000.53950.0395  plane waves:     342
 k-point 45 :  0.50000.55260.0526  plane waves:     342
 k-point 46 :  0.50000.56580.0658  plane waves:     342
 k-point 47 :  0.50000.57890.0789  plane waves:     346
 k-point 48 :  0.50000.59210.0921  plane waves:     346
 k-point 49 :  0.50000.60530.1053  plane waves:     346
 k-point 50 :  0.50000.61840.1184  plane waves:     342
 k-point 51 :  0.50000.63160.1316  plane waves:     342
 k-point 52 :  0.50000.64470.1447  plane waves:     344
 k-point 53 :  0.50000.65790.1579  plane waves:     344
 k-point 54 :  0.50000.67110.1711  plane waves:     344
 k-point 55 :  0.50000.68420.1842  plane waves:     344
 k-point 56 :  0.50000.69740.1974  plane waves:     344
 k-point 57 :  0.50000.71050.2105  plane waves:     344
 k-point 58 :  0.50000.72370.2237  plane waves:     344
 k-point 59 :  0.50000.73680.2368  plane waves:     344
 k-point 60 :  0.50000.75000.2500  plane waves:     360
 k-point 61 :  0.50000.75000.2500  plane waves:     360
 k-point 62 :  0.49340.75000.2566  plane waves:     350
 k-point 63 :  0.48680.75000.2632  plane waves:     344
 k-point 64 :  0.48030.75000.2697  plane waves:     344
 k-point 65 :  0.47370.75000.2763  plane waves:     344
 k-point 66 :  0.46710.75000.2829  plane waves:     344
 k-point 67 :  0.46050.75000.2895  plane waves:     344
 k-point 68 :  0.45390.75000.2961  plane waves:     344
 k-point 69 :  0.44740.75000.3026  plane waves:     344
 k-point 70 :  0.44080.75000.3092  plane waves:     343
 k-point 71 :  0.43420.75000.3158  plane waves:     343
 k-point 72 :  0.42760.75000.3224  plane waves:     341
 k-point 73 :  0.42110.75000.3289  plane waves:     344
 k-point 74 :  0.41450.75000.3355  plane waves:     344
 k-point 75 :  0.40790.75000.3421  plane waves:     342
 k-point 76 :  0.40130.75000.3487  plane waves:     342
 k-point 77 :  0.39470.75000.3553  plane waves:     342
 k-point 78 :  0.38820.75000.3618  plane waves:     342
 k-point 79 :  0.38160.75000.3684  plane waves:     344
 k-point 80 :  0.37500.75000.3750  plane waves:     347
 k-point 81 :  0.37500.75000.3750  plane waves:     347
 k-point 82 :  0.35530.71050.3553  plane waves:     343
 k-point 83 :  0.33550.67110.3355  plane waves:     347
 k-point 84 :  0.31580.63160.3158  plane waves:     349
 k-point 85 :  0.29610.59210.2961  plane waves:     343
 k-point 86 :  0.27630.55260.2763  plane waves:     343
 k-point 87 :  0.25660.51320.2566  plane waves:     339
 k-point 88 :  0.23680.47370.2368  plane waves:     339
 k-point 89 :  0.21710.43420.2171  plane waves:     335
 k-point 90 :  0.19740.39470.1974  plane waves:     333
 k-point 91 :  0.17760.35530.1776  plane waves:     339
 k-point 92 :  0.15790.31580.1579  plane waves:     333
 k-point 93 :  0.13820.27630.1382  plane waves:     333
 k-point 94 :  0.11840.23680.1184  plane waves:     331
 k-point 95 :  0.09870.19740.0987  plane waves:     335
 k-point 96 :  0.07890.15790.0789  plane waves:     333
 k-point 97 :  0.05920.11840.0592  plane waves:     333
 k-point 98 :  0.03950.07890.0395  plane waves:     333
 k-point 99 :  0.01970.03950.0197  plane waves:     331
 k-point ** :  0.00000.00000.0000  plane waves:     331

 maximum and minimum number of plane-waves per node :     360    327

 maximum number of plane-waves:     360
 maximal index in each direction: 
   IXMAX=  4   IYMAX=  4   IZMAX=  4
   IXMIN= -5   IYMIN= -5   IZMIN= -5

 WARNING: aliasing errors must be expected set NGX to  20 to avoid them
 WARNING: aliasing errors must be expected set NGY to  20 to avoid them
 WARNING: aliasing errors must be expected set NGZ to  20 to avoid them
 aliasing errors are usually negligible using standard VASP settings
 and one can safely disregard these warnings

 serial   3D FFT for wavefunctions
 parallel 3D FFT for charge:
    minimum data exchange during FFTs selected (reduces bandwidth)


 total amount of memory used by VASP on root node  34796. kBytes
========================================================================

   base      :    30000. kBytes
   nonl-proj :     2315. kBytes
   fftplans  :      302. kBytes
   grid      :      970. kBytes
   one-center:        6. kBytes
   wavefun   :     1203. kBytes
 
 initial charge density was supplied:
 number of electron    7.9999994 magnetization 
 keeping initial charge density in first step


--------------------------------------------------------------------------------------------------------


 Maximum index for augmentation-charges          871 (set IRDMAX)


--------------------------------------------------------------------------------------------------------


 First call to EWALD:  gamma=   0.522
 Maximum number of real-space cells 3x 3x 3
 Maximum number of reciprocal cells 3x 3x 3

    FEWALD:  cpu time    0.00: real time    0.00
   RESPFUN:  cpu time    0.00: real time    0.00


----------------------------------------- Iteration    1(   1)  ---------------------------------------


    POTLOK:  cpu time    0.01: real time    0.01
    SETDIJ:  cpu time    0.00: real time    0.00
     EDDAV:  cpu time    0.56: real time    0.56
       DOS:  cpu time    0.00: real time    0.00
    --------------------------------------------
      LOOP:  cpu time    0.58: real time    0.58

 eigenvalue-minimisations  :  1600
 total energy-change (2. order) : 0.2424404E+01  (-0.2196956E+03)
 number of electron    7.9999994 magnetization 
 augmentation part     7.9999994 magnetization 

 Free energy of the ion-electron system (eV)
  ---------------------------------------------------
  alpha Z        PSCENC =         3.44082216
  Ewald energy   TEWEN  =      -230.28707311
  -1/2 Hartree   DENC   =       -14.64953628
  -exchange  EXHF       =         0.00000000
  -V(xc)+E(xc)   XCENC  =       -17.84767571
  PAW double counting   =        75.85111821      -40.91690341
  entropy T*S    EENTRO =         0.00020980
  eigenvalues    EBANDS =        20.71093865
  atomic energy  EATOM  =       206.12250364
  ---------------------------------------------------
  free energy    TOTEN  =         2.42440394 eV

  energy without entropy =        2.42419414  energy(sigma->0) =        2.42435149


--------------------------------------------------------------------------------------------------------




----------------------------------------- Iteration    1(   2)  ---------------------------------------


     EDDAV:  cpu time    1.09: real time    1.09
       DOS:  cpu time    0.00: real time    0.00
    --------------------------------------------
      LOOP:  cpu time    1.09: real time    1.09

 eigenvalue-minimisations  :  2488
 total energy-change (2. order) :-0.1101898E+02  (-0.1017580E+02)
 number of electron    7.9999994 magnetization 
 augmentation part     7.9999994 magnetization 

 Free energy of the ion-electron system (eV)
  ---------------------------------------------------
  alpha Z        PSCENC =         3.44082216
  Ewald energy   TEWEN  =      -230.28707311
  -1/2 Hartree   DENC   =       -14.64953628
  -exchange  EXHF       =         0.00000000
  -V(xc)+E(xc)   XCENC  =       -17.84767571
  PAW double counting   =        75.85111821      -40.91690341
  entropy T*S    EENTRO =        -0.00023340
  eigenvalues    EBANDS =         9.69239877
  atomic energy  EATOM  =       206.12250364
  ---------------------------------------------------
  free energy    TOTEN  =        -8.59457914 eV

  energy without entropy =       -8.59434574  energy(sigma->0) =       -8.59452079


--------------------------------------------------------------------------------------------------------




----------------------------------------- Iteration    1(   3)  ---------------------------------------


     EDDAV:  cpu time    0.83: real time    0.83
       DOS:  cpu time    0.00: real time    0.00
    --------------------------------------------
      LOOP:  cpu time    0.83: real time    0.83

 eigenvalue-minimisations  :  2032
 total energy-change (2. order) :-0.1569543E+00  (-0.1365794E+00)
 number of electron    7.9999994 magnetization 
 augmentation part     7.9999994 magnetization 

 Free energy of the ion-electron system (eV)
  ---------------------------------------------------
  alpha Z        PSCENC =         3.44082216
  Ewald energy   TEWEN  =      -230.28707311
  -1/2 Hartree   DENC   =       -14.64953628
  -exchange  EXHF       =         0.00000000
  -V(xc)+E(xc)   XCENC  =       -17.84767571
  PAW double counting   =        75.85111821      -40.91690341
  entropy T*S    EENTRO =         0.00000000
  eigenvalues    EBANDS =         9.53521106
  atomic energy  EATOM  =       206.12250364
  ---------------------------------------------------
  free energy    TOTEN  =        -8.75153345 eV

  energy without entropy =       -8.75153345  energy(sigma->0) =       -8.75153345


--------------------------------------------------------------------------------------------------------




----------------------------------------- Iteration    1(   4)  ---------------------------------------


     EDDAV:  cpu time    1.12: real time    1.12
       DOS:  cpu time    0.00: real time    0.00
    --------------------------------------------
      LOOP:  cpu time    1.12: real time    1.12

 eigenvalue-minimisations  :  2512
 total energy-change (2. order) :-0.1967375E-02  (-0.2263751E-02)
 number of electron    7.9999994 magnetization 
 augmentation part     7.9999994 magnetization 

 Free energy of the ion-electron system (eV)
  ---------------------------------------------------
  alpha Z        PSCENC =         3.44082216
  Ewald energy   TEWEN  =      -230.28707311
  -1/2 Hartree   DENC   =       -14.64953628
  -exchange  EXHF       =         0.00000000
  -V(xc)+E(xc)   XCENC  =       -17.84767571
  PAW double counting   =        75.85111821      -40.91690341
  entropy T*S    EENTRO =         0.00033182
  eigenvalues    EBANDS =         9.53291186
  atomic energy  EATOM  =       206.12250364
  ---------------------------------------------------
  free energy    TOTEN  =        -8.75350083 eV

  energy without entropy =       -8.75383265  energy(sigma->0) =       -8.75358378


--------------------------------------------------------------------------------------------------------




----------------------------------------- Iteration    1(   5)  ---------------------------------------


     EDDAV:  cpu time    0.81: real time    0.81
       DOS:  cpu time    0.00: real time    0.00
    --------------------------------------------
      LOOP:  cpu time    0.81: real time    0.81

 eigenvalue-minimisations  :  2024
 total energy-change (2. order) :-0.1895785E-04  (-0.1895361E-04)
 number of electron    7.9999994 magnetization 
 augmentation part     7.9999994 magnetization 

 Free energy of the ion-electron system (eV)
  ---------------------------------------------------
  alpha Z        PSCENC =         3.44082216
  Ewald energy   TEWEN  =      -230.28707311
  -1/2 Hartree   DENC   =       -14.64953628
  -exchange  EXHF       =         0.00000000
  -V(xc)+E(xc)   XCENC  =       -17.84767571
  PAW double counting   =        75.85111821      -40.91690341
  entropy T*S    EENTRO =         0.00033204
  eigenvalues    EBANDS =         9.53289268
  atomic energy  EATOM  =       206.12250364
  ---------------------------------------------------
  free energy    TOTEN  =        -8.75351979 eV

  energy without entropy =       -8.75385183  energy(sigma->0) =       -8.75360280


--------------------------------------------------------------------------------------------------------




----------------------------------------- Iteration    1(   6)  ---------------------------------------


     EDDAV:  cpu time    1.09: real time    1.09
       DOS:  cpu time    0.00: real time    0.00
    --------------------------------------------
      LOOP:  cpu time    1.09: real time    1.09

 eigenvalue-minimisations  :  2512
 total energy-change (2. order) :-0.3652042E-06  (-0.3652123E-06)
 number of electron    7.9999994 magnetization 
 augmentation part     7.9999994 magnetization 

 Free energy of the ion-electron system (eV)
  ---------------------------------------------------
  alpha Z        PSCENC =         3.44082216
  Ewald energy   TEWEN  =      -230.28707311
  -1/2 Hartree   DENC   =       -14.64953628
  -exchange  EXHF       =         0.00000000
  -V(xc)+E(xc)   XCENC  =       -17.84767571
  PAW double counting   =        75.85111821      -40.91690341
  entropy T*S    EENTRO =         0.00033205
  eigenvalues    EBANDS =         9.53289231
  atomic energy  EATOM  =       206.12250364
  ---------------------------------------------------
  free energy    TOTEN  =        -8.75352015 eV

  energy without entropy =       -8.75385220  energy(sigma->0) =       -8.75360317


--------------------------------------------------------------------------------------------------------




 average (electrostatic) potential at core
  the test charge radii are     0.9892
  (the norm of the test charge is              1.0000)
       1 -82.9910       2 -82.9910
 
 
 
 E-fermi :   6.1041     XC(G=0):  -9.4994     alpha+bet :-12.2577
   add alpha+bet to get absolut eigen values

 k-point   1 :       0.5000    0.5000    0.5000
  band No.  band energies     occupation 
      1      -3.6653      2.00000
      2      -1.0136      2.00000
      3       4.8497      2.00000
      4       4.8497      2.00000
      5       7.6955      0.00000
      6       9.4141      0.00000
      7       9.4141      0.00000
      8      13.8283      0.00000

 k-point   2 :       0.4737    0.4737    0.4737
  band No.  band energies     occupation 
      1      -3.7061      2.00000
      2      -0.9554      2.00000
      3       4.8547      2.00000
      4       4.8547      2.00000
      5       7.7029      0.00000
      6       9.4202      0.00000
      7       9.4202      0.00000
      8      13.8380      0.00000

 k-point   3 :       0.4474    0.4474    0.4474
  band No.  band energies     occupation 
      1      -3.8186      2.00000
      2      -0.7907      2.00000
      3       4.8698      2.00000
      4       4.8698      2.00000
      5       7.7199      0.00000
      6       9.4382      0.00000
      7       9.4382      0.00000
      8      13.8655      0.00000

 k-point   4 :       0.4211    0.4211    0.4211
  band No.  band energies     occupation 
      1      -3.9816      2.00000
      2      -0.5414      2.00000
      3       4.8949      2.00000
      4       4.8949      2.00000
      5       7.7485      0.00000
      6       9.4684      0.00000
      7       9.4684      0.00000
      8      13.9085      0.00000

 k-point   5 :       0.3947    0.3947    0.3947
  band No.  band energies     occupation 
      1      -4.1725      2.00000
      2      -0.2292      2.00000
      3       4.9301      2.00000
      4       4.9301      2.00000
      5       7.7879      0.00000
      6       9.5047      0.00000
      7       9.5047      0.00000
      8      13.9619      0.00000

 k-point   6 :       0.3684    0.3684    0.3684
  band No.  band energies     occupation 
      1      -4.3760      2.00000
      2       0.1305      2.00000
      3       4.9748      2.00000
      4       4.9748      2.00000
      5       7.8382      0.00000
      6       9.5441      0.00000
      7       9.5442      0.00000
      8      14.0150      0.00000

 k-point   7 :       0.3421    0.3421    0.3421
  band No.  band energies     occupation 
      1      -4.5817      2.00000
      2       0.5251      2.00000
      3       5.0297      2.00000
      4       5.0297      2.00000
      5       7.8991      0.00000
      6       9.5835      0.00000
      7       9.5835      0.00000
      8      14.0371      0.00000

 k-point   8 :       0.3158    0.3158    0.3158
  band No.  band energies     occupation 
      1      -4.7827      2.00000
      2       0.9479      2.00000
      3       5.0942      2.00000
      4       5.0942      2.00000
      5       7.9700      0.00000
      6       9.6151      0.00000
      7       9.6151      0.00000
      8      13.9139      0.00000

 k-point   9 :       0.2895    0.2895    0.2895
  band No.  band energies     occupation 
      1      -4.9746      2.00000
      2       1.3937      2.00000
      3       5.1680      2.00000
      4       5.1680      2.00000
      5       8.0502      0.00000
      6       9.6308      0.00000
      7       9.6308      0.00000
      8      13.6270      0.00000

 k-point  10 :       0.2632    0.2632    0.2632
  band No.  band energies     occupation 
      1      -5.1547      2.00000
      2       1.8587      2.00000
      3       5.2509      2.00000
      4       5.2509      2.00000
      5       8.1387      0.00000
      6       9.6226      0.00000
      7       9.6226      0.00000
      8      13.3925      0.00000

 k-point  11 :       0.2368    0.2368    0.2368
  band No.  band energies     occupation 
      1      -5.3210      2.00000
      2       2.3395      2.00000
      3       5.3414      2.00000
      4       5.3414      2.00000
      5       8.2343      0.00000
      6       9.5808      0.00000
      7       9.5808      0.00000
      8      12.9697      0.00000

 k-point  12 :       0.2105    0.2105    0.2105
  band No.  band energies     occupation 
      1      -5.4720      2.00000
      2       2.8322      2.00000
      3       5.4394      2.00000
      4       5.4394      2.00000
      5       8.3342      0.00000
      6       9.5057      0.00000
      7       9.5057      0.00000
      8      12.5164      0.00000

 k-point  13 :       0.1842    0.1842    0.1842
  band No.  band energies     occupation 
      1      -5.6069      2.00000
      2       3.3329      2.00000
      3       5.5416      2.00000
      4       5.5416      2.00000
      5       8.4333      0.00000
      6       9.3977      0.00000
      7       9.3977      0.00000
      8      12.0465      0.00000

 k-point  14 :       0.1579    0.1579    0.1579
  band No.  band energies     occupation 
      1      -5.7248      2.00000
      2       3.8387      2.00000
      3       5.6466      2.00000
      4       5.6466      2.00000
      5       8.5313      0.00000
      6       9.2657      0.00000
      7       9.2657      0.00000
      8      11.5743      0.00000

 k-point  15 :       0.1316    0.1316    0.1316
  band No.  band energies     occupation 
      1      -5.8253      2.00000
      2       4.3401      2.00000
      3       5.7510      2.00000
      4       5.7510      2.00000
      5       8.6209      0.00000
      6       9.1211      0.00000
      7       9.1211      0.00000
      8      11.1094      0.00000

 k-point  16 :       0.1053    0.1053    0.1053
  band No.  band energies     occupation 
      1      -5.9080      2.00000
      2       4.8278      2.00000
      3       5.8505      2.00000
      4       5.8505      2.00000
      5       8.6922      0.00000
      6       8.9768      0.00000
      7       8.9768      0.00000
      8      10.6654      0.00000

 k-point  17 :       0.0789    0.0789    0.0789
  band No.  band energies     occupation 
      1      -5.9725      2.00000
      2       5.2850      2.00000
      3       5.9406      1.99985
      4       5.9406      1.99985
      5       8.7319      0.00000
      6       8.8460      0.00000
      7       8.8460      0.00000
      8      10.2674      0.00000

 k-point  18 :       0.0526    0.0526    0.0526
  band No.  band energies     occupation 
      1      -6.0188      2.00000
      2       5.6815      2.00000
      3       6.0118      1.99258
      4       6.0118      1.99258
      5       8.7248      0.00000
      6       8.7411      0.00000
      7       8.7411      0.00000
      8       9.9540      0.00000

 k-point  19 :       0.0263    0.0263    0.0263
  band No.  band energies     occupation 
      1      -6.0466      2.00000
      2       5.9676      1.99812
      3       6.0584      2.10178
      4       6.0584      2.10178
      5       8.6728      0.00000
      6       8.6728      0.00000
      7       8.6786      0.00000
      8       9.7632      0.00000

 k-point  20 :       0.0000    0.0000    0.0000
  band No.  band energies     occupation 
      1      -6.0558      2.00000
      2       6.0746      1.96518
      3       6.0746      1.96496
      4       6.0746      1.96495
      5       8.6491      0.00000
      6       8.6491      0.00000
      7       8.6491      0.00000
      8       9.7022      0.00000

 k-point  21 :       0.0000    0.0000    0.0000
  band No.  band energies     occupation 
      1      -6.0558      2.00000
      2       6.0746      1.96518
      3       6.0746      1.96496
      4       6.0746      1.96495
      5       8.6491      0.00000
      6       8.6491      0.00000
      7       8.6491      0.00000
      8       9.7022      0.00000

 k-point  22 :       0.0263    0.0263    0.0000
  band No.  band energies     occupation 
      1      -6.0435      2.00000
      2       5.9953      1.99124
      3       6.0209      2.00300
      4       6.0209      2.00302
      5       8.6183      0.00000
      6       8.7181      0.00000
      7       8.7181      0.00000
      8       9.7796      0.00000

 k-point  23 :       0.0526    0.0526    0.0000
  band No.  band energies     occupation 
      1      -6.0065      2.00000
      2       5.7749      2.00000
      3       5.8737      2.00000
      4       5.8737      2.00000
      5       8.5299      0.00000
      6       8.9096      0.00000
      7       8.9096      0.00000
      8       9.9884      0.00000

 k-point  24 :       0.0789    0.0789    0.0000
  band No.  band energies     occupation 
      1      -5.9447      2.00000
      2       5.4557      2.00000
      3       5.6677      2.00000
      4       5.6678      2.00000
      5       8.3947      0.00000
      6       9.1915      0.00000
      7       9.1916      0.00000
      8      10.2713      0.00000

 k-point  25 :       0.1053    0.1053    0.0000
  band No.  band energies     occupation 
      1      -5.8584      2.00000
      2       5.0726      2.00000
      3       5.4302      2.00000
      4       5.4302      2.00000
      5       8.2259      0.00000
      6       9.5349      0.00000
      7       9.5349      0.00000
      8      10.5451      0.00000

 k-point  26 :       0.1316    0.1316    0.0000
  band No.  band energies     occupation 
      1      -5.7476      2.00000
      2       4.6504      2.00000
      3       5.1804      2.00000
      4       5.1804      2.00000
      5       8.0365      0.00000
      6       9.9197      0.00000
      7       9.9198      0.00000
      8      10.6820      0.00000

 k-point  27 :       0.1579    0.1579    0.0000
  band No.  band energies     occupation 
      1      -5.6125      2.00000
      2       4.2036      2.00000
      3       4.9301      2.00000
      4       4.9301      2.00000
      5       7.8380      0.00000
      6      10.3348      0.00000
      7      10.3348      0.00000
      8      10.5630      0.00000

 k-point  28 :       0.1842    0.1842    0.0000
  band No.  band energies     occupation 
      1      -5.4534      2.00000
      2       3.7424      2.00000
      3       4.6868      2.00000
      4       4.6868      2.00000
      5       7.6393      0.00000
      6      10.2447      0.00000
      7      10.7699      0.00000
      8      10.7699      0.00000

 k-point  29 :       0.2105    0.2105    0.0000
  band No.  band energies     occupation 
      1      -5.2705      2.00000
      2       3.2708      2.00000
      3       4.4538      2.00000
      4       4.4539      2.00000
      5       7.4475      0.00000
      6       9.8409      0.00000
      7      11.2219      0.00000
      8      11.2219      0.00000

 k-point  30 :       0.2368    0.2368    0.0000
  band No.  band energies     occupation 
      1      -5.0641      2.00000
      2       2.7944      2.00000
      3       4.2370      2.00000
      4       4.2370      2.00000
      5       7.2677      0.00000
      6       9.4196      0.00000
      7      11.6849      0.00000
      8      11.6849      0.00000

 k-point  31 :       0.2632    0.2632    0.0000
  band No.  band energies     occupation 
      1      -4.8347      2.00000
      2       2.3148      2.00000
      3       4.0371      2.00000
      4       4.0371      2.00000
      5       7.1041      0.00000
      6       9.0079      0.00000
      7      12.1578      0.00000
      8      12.1578      0.00000

 k-point  32 :       0.2895    0.2895    0.0000
  band No.  band energies     occupation 
      1      -4.5825      2.00000
      2       1.8343      2.00000
      3       3.8556      2.00000
      4       3.8556      2.00000
      5       6.9599      0.00000
      6       8.6195      0.00000
      7      12.6390      0.00000
      8      12.6390      0.00000

 k-point  33 :       0.3158    0.3158    0.0000
  band No.  band energies     occupation 
      1      -4.3078      2.00000
      2       1.3546      2.00000
      3       3.6936      2.00000
      4       3.6936      2.00000
      5       6.8388      0.00000
      6       8.2613      0.00000
      7      13.1279      0.00000
      8      13.1279      0.00000

 k-point  34 :       0.3421    0.3421    0.0000
  band No.  band energies     occupation 
      1      -4.0118      2.00000
      2       0.8777      2.00000
      3       3.5519      2.00000
      4       3.5519      2.00000
      5       6.7416      0.00000
      6       7.9370      0.00000
      7      13.6291      0.00000
      8      13.6291      0.00000

 k-point  35 :       0.3684    0.3684    0.0000
  band No.  band energies     occupation 
      1      -3.6949      2.00000
      2       0.4052      2.00000
      3       3.4313      2.00000
      4       3.4313      2.00000
      5       6.6704      0.00000
      6       7.6493      0.00000
      7      14.1358      0.00000
      8      14.1358      0.00000

 k-point  36 :       0.3947    0.3947    0.0000
  band No.  band energies     occupation 
      1      -3.3579      2.00000
      2      -0.0609      2.00000
      3       3.3313      2.00000
      4       3.3313      2.00000
      5       6.6254      0.00000
      6       7.3962      0.00000
      7      14.6412      0.00000
      8      14.6413      0.00000

 k-point  37 :       0.4211    0.4211    0.0000
  band No.  band energies     occupation 
      1      -3.0015      2.00000
      2      -0.5188      2.00000
      3       3.2537      2.00000
      4       3.2537      2.00000
      5       6.6091      0.00000
      6       7.1802      0.00000
      7      15.1498      0.00000
      8      15.1498      0.00000

 k-point  38 :       0.4474    0.4474    0.0000
  band No.  band energies     occupation 
      1      -2.6268      2.00000
      2      -0.9675      2.00000
      3       3.1980      2.00000
      4       3.1980      2.00000
      5       6.6225      0.00000
      6       6.9996      0.00000
      7      15.6522      0.00000
      8      15.6522      0.00000

 k-point  39 :       0.4737    0.4737    0.0000
  band No.  band energies     occupation 
      1      -2.2347      2.00000
      2      -1.4036      2.00000
      3       3.1646      2.00000
      4       3.1646      2.00000
      5       6.6673      0.00000
      6       6.8548      0.00000
      7      16.1246      0.00000
      8      16.1246      0.00000

 k-point  40 :       0.5000    0.5000    0.0000
  band No.  band energies     occupation 
      1      -1.8265      2.00000
      2      -1.8265      2.00000
      3       3.1535      2.00000
      4       3.1535      2.00000
      5       6.7443      0.00000
      6       6.7443      0.00000
      7      16.3923      0.00000
      8      16.3935      0.00000

 k-point  41 :       0.5000    0.5000    0.0000
  band No.  band energies     occupation 
      1      -1.8265      2.00000
      2      -1.8265      2.00000
      3       3.1535      2.00000
      4       3.1535      2.00000
      5       6.7443      0.00000
      6       6.7443      0.00000
      7      16.3922      0.00000
      8      16.3930      0.00000

 k-point  42 :       0.5000    0.5132    0.0132
  band No.  band energies     occupation 
      1      -1.8255      2.00000
      2      -1.8255      2.00000
      3       3.1438      2.00000
      4       3.1438      2.00000
      5       6.7617      0.00000
      6       6.7617      0.00000
      7      16.3636      0.00000
      8      16.3645      0.00000

 k-point  43 :       0.5000    0.5263    0.0263
  band No.  band energies     occupation 
      1      -1.8222      2.00000
      2      -1.8222      2.00000
      3       3.1155      2.00000
      4       3.1155      2.00000
      5       6.8132      0.00000
      6       6.8132      0.00000
      7      16.2702      0.00000
      8      16.2707      0.00000

 k-point  44 :       0.5000    0.5395    0.0395
  band No.  band energies     occupation 
      1      -1.8170      2.00000
      2      -1.8170      2.00000
      3       3.0704      2.00000
      4       3.0704      2.00000
      5       6.8970      0.00000
      6       6.8970      0.00000
      7      16.1015      0.00000
      8      16.1018      0.00000

 k-point  45 :       0.5000    0.5526    0.0526
  band No.  band energies     occupation 
      1      -1.8097      2.00000
      2      -1.8097      2.00000
      3       3.0111      2.00000
      4       3.0111      2.00000
      5       7.0105      0.00000
      6       7.0105      0.00000
      7      15.8624      0.00000
      8      15.8630      0.00000

 k-point  46 :       0.5000    0.5658    0.0658
  band No.  band energies     occupation 
      1      -1.8006      2.00000
      2      -1.8006      2.00000
      3       2.9408      2.00000
      4       2.9408      2.00000
      5       7.1507      0.00000
      6       7.1507      0.00000
      7      15.5743      0.00000
      8      15.5743      0.00000

 k-point  47 :       0.5000    0.5789    0.0789
  band No.  band energies     occupation 
      1      -1.7900      2.00000
      2      -1.7900      2.00000
      3       2.8624      2.00000
      4       2.8624      2.00000
      5       7.3142      0.00000
      6       7.3142      0.00000
      7      15.2497      0.00000
      8      15.2497      0.00000

 k-point  48 :       0.5000    0.5921    0.0921
  band No.  band energies     occupation 
      1      -1.7780      2.00000
      2      -1.7780      2.00000
      3       2.7794      2.00000
      4       2.7795      2.00000
      5       7.4988      0.00000
      6       7.4988      0.00000
      7      14.9147      0.00000
      8      14.9148      0.00000

 k-point  49 :       0.5000    0.6053    0.1053
  band No.  band energies     occupation 
      1      -1.7648      2.00000
      2      -1.7648      2.00000
      3       2.6943      2.00000
      4       2.6943      2.00000
      5       7.7015      0.00000
      6       7.7015      0.00000
      7      14.5708      0.00000
      8      14.5708      0.00000

 k-point  50 :       0.5000    0.6184    0.1184
  band No.  band energies     occupation 
      1      -1.7506      2.00000
      2      -1.7506      2.00000
      3       2.6096      2.00000
      4       2.6096      2.00000
      5       7.9204      0.00000
      6       7.9205      0.00000
      7      14.2230      0.00000
      8      14.2230      0.00000

 k-point  51 :       0.5000    0.6316    0.1316
  band No.  band energies     occupation 
      1      -1.7362      2.00000
      2      -1.7362      2.00000
      3       2.5272      2.00000
      4       2.5272      2.00000
      5       8.1530      0.00000
      6       8.1530      0.00000
      7      13.8721      0.00000
      8      13.8721      0.00000

 k-point  52 :       0.5000    0.6447    0.1447
  band No.  band energies     occupation 
      1      -1.7220      2.00000
      2      -1.7220      2.00000
      3       2.4486      2.00000
      4       2.4486      2.00000
      5       8.3966      0.00000
      6       8.3967      0.00000
      7      13.5189      0.00000
      8      13.5190      0.00000

 k-point  53 :       0.5000    0.6579    0.1579
  band No.  band energies     occupation 
      1      -1.7079      2.00000
      2      -1.7079      2.00000
      3       2.3761      2.00000
      4       2.3761      2.00000
      5       8.6521      0.00000
      6       8.6521      0.00000
      7      13.1704      0.00000
      8      13.1705      0.00000

 k-point  54 :       0.5000    0.6711    0.1711
  band No.  band energies     occupation 
      1      -1.6946      2.00000
      2      -1.6946      2.00000
      3       2.3105      2.00000
      4       2.3105      2.00000
      5       8.9167      0.00000
      6       8.9167      0.00000
      7      12.8256      0.00000
      8      12.8256      0.00000

 k-point  55 :       0.5000    0.6842    0.1842
  band No.  band energies     occupation 
      1      -1.6825      2.00000
      2      -1.6825      2.00000
      3       2.2531      2.00000
      4       2.2531      2.00000
      5       9.1886      0.00000
      6       9.1887      0.00000
      7      12.4859      0.00000
      8      12.4859      0.00000

 k-point  56 :       0.5000    0.6974    0.1974
  band No.  band energies     occupation 
      1      -1.6720      2.00000
      2      -1.6720      2.00000
      3       2.2048      2.00000
      4       2.2049      2.00000
      5       9.4656      0.00000
      6       9.4656      0.00000
      7      12.1537      0.00000
      8      12.1537      0.00000

 k-point  57 :       0.5000    0.7105    0.2105
  band No.  band energies     occupation 
      1      -1.6634      2.00000
      2      -1.6634      2.00000
      3       2.1665      2.00000
      4       2.1665      2.00000
      5       9.7435      0.00000
      6       9.7436      0.00000
      7      11.8329      0.00000
      8      11.8330      0.00000

 k-point  58 :       0.5000    0.7237    0.2237
  band No.  band energies     occupation 
      1      -1.6570      2.00000
      2      -1.6570      2.00000
      3       2.1386      2.00000
      4       2.1386      2.00000
      5      10.0131      0.00000
      6      10.0131      0.00000
      7      11.5329      0.00000
      8      11.5329      0.00000

 k-point  59 :       0.5000    0.7368    0.2368
  band No.  band energies     occupation 
      1      -1.6531      2.00000
      2      -1.6531      2.00000
      3       2.1217      2.00000
      4       2.1217      2.00000
      5      10.2464      0.00000
      6      10.2464      0.00000
      7      11.2813      0.00000
      8      11.2814      0.00000

 k-point  60 :       0.5000    0.7500    0.2500
  band No.  band energies     occupation 
      1      -1.6521      2.00000
      2      -1.6521      2.00000
      3       2.1155      2.00000
      4       2.1155      2.00000
      5      10.3533      0.00000
      6      10.3533      0.00000
      7      11.1622      0.00000
      8      11.1623      0.00000

 k-point  61 :       0.5000    0.7500    0.2500
  band No.  band energies     occupation 
      1      -1.6521      2.00000
      2      -1.6521      2.00000
      3       2.1155      2.00000
      4       2.1155      2.00000
      5      10.3533      0.00000
      6      10.3533      0.00000
      7      11.1622      0.00000
      8      11.1623      0.00000

 k-point  62 :       0.4934    0.7500    0.2566
  band No.  band energies     occupation 
      1      -1.7119      2.00000
      2      -1.5931      2.00000
      3       2.0700      2.00000
      4       2.1672      2.00000
      5      10.2519      0.00000
      6      10.3910      0.00000
      7      11.1743      0.00000
      8      11.2289      0.00000

 k-point  63 :       0.4868    0.7500    0.2632
  band No.  band energies     occupation 
      1      -1.7684      2.00000
      2      -1.5397      2.00000
      3       2.0267      2.00000
      4       2.2277      2.00000
      5      10.0697      0.00000
      6      10.4109      0.00000
      7      11.2713      0.00000
      8      11.3164      0.00000

 k-point  64 :       0.4803    0.7500    0.2697
  band No.  band energies     occupation 
      1      -1.8219      2.00000
      2      -1.4919      2.00000
      3       1.9854      2.00000
      4       2.2965      2.00000
      5       9.8520      0.00000
      6      10.4153      0.00000
      7      11.4107      0.00000
      8      11.4219      0.00000

 k-point  65 :       0.4737    0.7500    0.2763
  band No.  band energies     occupation 
      1      -1.8722      2.00000
      2      -1.4493      2.00000
      3       1.9464      2.00000
      4       2.3735      2.00000
      5       9.6218      0.00000
      6      10.4099      0.00000
      7      11.5418      0.00000
      8      11.5712      0.00000

 k-point  66 :       0.4671    0.7500    0.2829
  band No.  band energies     occupation 
      1      -1.9193      2.00000
      2      -1.4118      2.00000
      3       1.9096      2.00000
      4       2.4579      2.00000
      5       9.3885      0.00000
      6      10.3983      0.00000
      7      11.6723      0.00000
      8      11.7436      0.00000

 k-point  67 :       0.4605    0.7500    0.2895
  band No.  band energies     occupation 
      1      -1.9632      2.00000
      2      -1.3789      2.00000
      3       1.8752      2.00000
      4       2.5489      2.00000
      5       9.1570      0.00000
      6      10.3830      0.00000
      7      11.8109      0.00000
      8      11.9237      0.00000

 k-point  68 :       0.4539    0.7500    0.2961
  band No.  band energies     occupation 
      1      -2.0038      2.00000
      2      -1.3505      2.00000
      3       1.8432      2.00000
      4       2.6454      2.00000
      5       8.9298      0.00000
      6      10.3658      0.00000
      7      11.9556      0.00000
      8      12.1096      0.00000

 k-point  69 :       0.4474    0.7500    0.3026
  band No.  band energies     occupation 
      1      -2.0413      2.00000
      2      -1.3262      2.00000
      3       1.8136      2.00000
      4       2.7463      2.00000
      5       8.7089      0.00000
      6      10.3478      0.00000
      7      12.1049      0.00000
      8      12.3000      0.00000

 k-point  70 :       0.4408    0.7500    0.3092
  band No.  band energies     occupation 
      1      -2.0755      2.00000
      2      -1.3053      2.00000
      3       1.7865      2.00000
      4       2.8506      2.00000
      5       8.4971      0.00000
      6      10.3300      0.00000
      7      12.2579      0.00000
      8      12.4943      0.00000

 k-point  71 :       0.4342    0.7500    0.3158
  band No.  band energies     occupation 
      1      -2.1064      2.00000
      2      -1.2878      2.00000
      3       1.7619      2.00000
      4       2.9560      2.00000
      5       8.2938      0.00000
      6      10.3128      0.00000
      7      12.4137      0.00000
      8      12.6919      0.00000

 k-point  72 :       0.4276    0.7500    0.3224
  band No.  band energies     occupation 
      1      -2.1342      2.00000
      2      -1.2733      2.00000
      3       1.7398      2.00000
      4       3.0611      2.00000
      5       8.1017      0.00000
      6      10.2974      0.00000
      7      12.5720      0.00000
      8      12.8950      0.00000

 k-point  73 :       0.4211    0.7500    0.3289
  band No.  band energies     occupation 
      1      -2.1586      2.00000
      2      -1.2613      2.00000
      3       1.7202      2.00000
      4       3.1636      2.00000
      5       7.9226      0.00000
      6      10.2826      0.00000
      7      12.7307      0.00000
      8      13.0969      0.00000

 k-point  74 :       0.4145    0.7500    0.3355
  band No.  band energies     occupation 
      1      -2.1799      2.00000
      2      -1.2515      2.00000
      3       1.7032      2.00000
      4       3.2614      2.00000
      5       7.7592      0.00000
      6      10.2695      0.00000
      7      12.8904      0.00000
      8      13.3022      0.00000

 k-point  75 :       0.4079    0.7500    0.3421
  band No.  band energies     occupation 
      1      -2.1978      2.00000
      2      -1.2436      2.00000
      3       1.6888      2.00000
      4       3.3517      2.00000
      5       7.6138      0.00000
      6      10.2583      0.00000
      7      13.0497      0.00000
      8      13.5105      0.00000

 k-point  76 :       0.4013    0.7500    0.3487
  band No.  band energies     occupation 
      1      -2.2125      2.00000
      2      -1.2376      2.00000
      3       1.6770      2.00000
      4       3.4316      2.00000
      5       7.4890      0.00000
      6      10.2489      0.00000
      7      13.2067      0.00000
      8      13.7195      0.00000

 k-point  77 :       0.3947    0.7500    0.3553
  band No.  band energies     occupation 
      1      -2.2239      2.00000
      2      -1.2331      2.00000
      3       1.6678      2.00000
      4       3.4981      2.00000
      5       7.3877      0.00000
      6      10.2415      0.00000
      7      13.3585      0.00000
      8      13.9298      0.00000

 k-point  78 :       0.3882    0.7500    0.3618
  band No.  band energies     occupation 
      1      -2.2321      2.00000
      2      -1.2300      2.00000
      3       1.6612      2.00000
      4       3.5482      2.00000
      5       7.3128      0.00000
      6      10.2362      0.00000
      7      13.4986      0.00000
      8      14.1406      0.00000

 k-point  79 :       0.3816    0.7500    0.3684
  band No.  band energies     occupation 
      1      -2.2371      2.00000
      2      -1.2283      2.00000
      3       1.6573      2.00000
      4       3.5794      2.00000
      5       7.2665      0.00000
      6      10.2329      0.00000
      7      13.6093      0.00000
      8      14.2733      0.00000

 k-point  80 :       0.3750    0.7500    0.3750
  band No.  band energies     occupation 
      1      -2.2387      2.00000
      2      -1.2277      2.00000
      3       1.6558      2.00000
      4       3.5899      2.00000
      5       7.2504      0.00000
      6      10.2317      0.00000
      7      13.6536      0.00000
      8      14.2260      0.00000

 k-point  81 :       0.3750    0.7500    0.3750
  band No.  band energies     occupation 
      1      -2.2387      2.00000
      2      -1.2277      2.00000
      3       1.6558      2.00000
      4       3.5899      2.00000
      5       7.2504      0.00000
      6      10.2317      0.00000
      7      13.6535      0.00000
      8      14.2246      0.00000

 k-point  82 :       0.3553    0.7105    0.3553
  band No.  band energies     occupation 
      1      -2.4414      2.00000
      2      -1.0244      2.00000
      3       1.5567      2.00000
      4       3.7325      2.00000
      5       7.4175      0.00000
      6      11.0466      0.00000
      7      13.1633      0.00000
      8      13.7387      0.00000

 k-point  83 :       0.3355    0.6711    0.3355
  band No.  band energies     occupation 
      1      -2.6867      2.00000
      2      -0.7922      2.00000
      3       1.5408      2.00000
      4       3.8918      2.00000
      5       7.6034      0.00000
      6      11.8382      0.00000
      7      12.6908      0.00000
      8      13.3260      0.00000

 k-point  84 :       0.3158    0.6316    0.3158
  band No.  band energies     occupation 
      1      -2.9632      2.00000
      2      -0.5312      2.00000
      3       1.6013      2.00000
      4       4.0657      2.00000
      5       7.8060      0.00000
      6      12.2408      0.00000
      7      12.3236      0.00000
      8      13.2693      0.00000

 k-point  85 :       0.2961    0.5921    0.2961
  band No.  band energies     occupation 
      1      -3.2593      2.00000
      2      -0.2414      2.00000
      3       1.7279      2.00000
      4       4.2519      2.00000
      5       8.0220      0.00000
      6      11.8150      0.00000
      7      12.1314      0.00000
      8      13.0115      0.00000

 k-point  86 :       0.2763    0.5526    0.2763
  band No.  band energies     occupation 
      1      -3.5641      2.00000
      2       0.0769      2.00000
      3       1.9104      2.00000
      4       4.4468      2.00000
      5       8.2460      0.00000
      6      11.4113      0.00000
      7      11.7697      0.00000
      8      12.7016      0.00000

 k-point  87 :       0.2566    0.5132    0.2566
  band No.  band energies     occupation 
      1      -3.8679      2.00000
      2       0.4226      2.00000
      3       2.1396      2.00000
      4       4.6476      2.00000
      5       8.4709      0.00000
      6      11.0364      0.00000
      7      11.4012      0.00000
      8      12.4318      0.00000

 k-point  88 :       0.2368    0.4737    0.2368
  band No.  band energies     occupation 
      1      -4.1640      2.00000
      2       0.7955      2.00000
      3       2.4084      2.00000
      4       4.8487      2.00000
      5       8.6867      0.00000
      6      10.6867      0.00000
      7      11.0484      0.00000
      8      12.2010      0.00000

 k-point  89 :       0.2171    0.4342    0.2171
  band No.  band energies     occupation 
      1      -4.4469      2.00000
      2       1.1952      2.00000
      3       2.7111      2.00000
      4       5.0459      2.00000
      5       8.8811      0.00000
      6      10.3639      0.00000
      7      10.7179      0.00000
      8      12.0258      0.00000

 k-point  90 :       0.1974    0.3947    0.1974
  band No.  band energies     occupation 
      1      -4.7132      2.00000
      2       1.6207      2.00000
      3       3.0412      2.00000
      4       5.2347      2.00000
      5       9.0401      0.00000
      6      10.0689      0.00000
      7      10.4103      0.00000
      8      11.9100      0.00000

 k-point  91 :       0.1776    0.3553    0.1776
  band No.  band energies     occupation 
      1      -4.9595      2.00000
      2       2.0704      2.00000
      3       3.3936      2.00000
      4       5.4090      2.00000
      5       9.1491      0.00000
      6       9.7994      0.00000
      7      10.1230      0.00000
      8      11.8520      0.00000

 k-point  92 :       0.1579    0.3158    0.1579
  band No.  band energies     occupation 
      1      -5.1837      2.00000
      2       2.5443      2.00000
      3       3.7638      2.00000
      4       5.5655      2.00000
      5       9.2077      0.00000
      6       9.5596      0.00000
      7       9.8614      0.00000
      8      11.8396      0.00000

 k-point  93 :       0.1382    0.2763    0.1382
  band No.  band energies     occupation 
      1      -5.3845      2.00000
      2       3.0378      2.00000
      3       4.1440      2.00000
      4       5.7001      2.00000
      5       9.2171      0.00000
      6       9.3468      0.00000
      7       9.6233      0.00000
      8      11.8207      0.00000

 k-point  94 :       0.1184    0.2368    0.1184
  band No.  band energies     occupation 
      1      -5.5604      2.00000
      2       3.5486      2.00000
      3       4.5272      2.00000
      4       5.8125      2.00000
      5       9.1621      0.00000
      6       9.1889      0.00000
      7       9.4036      0.00000
      8      11.7127      0.00000

 k-point  95 :       0.0987    0.1974    0.0987
  band No.  band energies     occupation 
      1      -5.7106      2.00000
      2       4.0716      2.00000
      3       4.9035      2.00000
      4       5.9013      2.00000
      5       9.0054      0.00000
      6       9.1355      0.00000
      7       9.2077      0.00000
      8      11.4297      0.00000

 k-point  96 :       0.0789    0.1579    0.0789
  band No.  band energies     occupation 
      1      -5.8343      2.00000
      2       4.5981      2.00000
      3       5.2608      2.00000
      4       5.9689      1.99792
      5       8.8772      0.00000
      6       9.0337      0.00000
      7       9.0647      0.00000
      8      10.9900      0.00000

 k-point  97 :       0.0592    0.1184    0.0592
  band No.  band energies     occupation 
      1      -5.9309      2.00000
      2       5.1109      2.00000
      3       5.5803      2.00000
      4       6.0177      1.99812
      5       8.7774      0.00000
      6       8.8828      0.00000
      7       8.9746      0.00000
      8      10.4998      0.00000

 k-point  98 :       0.0395    0.0789    0.0395
  band No.  band energies     occupation 
      1      -6.0003      2.00000
      2       5.5777      2.00000
      3       5.8399      2.00000
      4       6.0502      2.09502
      5       8.7061      0.00000
      6       8.7608      0.00000
      7       8.8561      0.00000
      8      10.0706      0.00000

 k-point  99 :       0.0197    0.0395    0.0197
  band No.  band energies     occupation 
      1      -6.0419      2.00000
      2       5.9345      1.99992
      3       6.0135      1.99378
      4       6.0686      2.04618
      5       8.6633      0.00000
      6       8.6786      0.00000
      7       8.7193      0.00000
      8       9.7932      0.00000

 k-point 100 :       0.0000    0.0000    0.0000
  band No.  band energies     occupation 
      1      -6.0558      2.00000
      2       6.0746      1.96518
      3       6.0746      1.96496
      4       6.0746      1.96495
      5       8.6491      0.00000
      6       8.6491      0.00000
      7       8.6491      0.00000
      8       9.7022      0.00000


--------------------------------------------------------------------------------------------------------


 soft charge-density along one line, spin component           1
         0         1         2         3         4         5         6         7         8         9
 total charge-density along one line
 
 pseudopotential strength for first ion, spin component:           1
 18.390  -0.001   0.000   0.000   0.000   0.000   0.000   0.000
 -0.001   0.006   0.000   0.000   0.000   0.000   0.000   0.000
  0.000   0.000   4.177   0.000   0.000  -0.005   0.000   0.000
  0.000   0.000   0.000   4.177   0.000   0.000  -0.005   0.000
  0.000   0.000   0.000   0.000   4.177   0.000   0.000  -0.005
  0.000   0.000  -0.005   0.000   0.000   0.005   0.000   0.000
  0.000   0.000   0.000  -0.005   0.000   0.000   0.005   0.000
  0.000   0.000   0.000   0.000  -0.005   0.000   0.000   0.005
 total augmentation occupancy for first ion, spin component:           1
  2.000   0.000   0.000   0.000   0.000   0.000   0.000   0.000
  0.000   0.000   0.000   0.000   0.000   0.000   0.000   0.000
  0.000   0.000   0.667   0.000   0.000   0.000   0.000   0.000
  0.000   0.000   0.000   0.667   0.000   0.000   0.000   0.000
  0.000   0.000   0.000   0.000   0.667   0.000   0.000   0.000
  0.000   0.000   0.000   0.000   0.000   0.000   0.000   0.000
  0.000   0.000   0.000   0.000   0.000   0.000   0.000   0.000
  0.000   0.000   0.000   0.000   0.000   0.000   0.000   0.000


------------------------ aborting loop because EDIFF is reached ----------------------------------------




--------------------------------------------------------------------------------------------------------



  FREE ENERGIE OF THE ION-ELECTRON SYSTEM (eV)
  ---------------------------------------------------
  free  energy   TOTEN  =        -8.753520 eV

  energy  without entropy=       -8.753852  energy(sigma->0) =       -8.753603
 
    CHARGE:  cpu time    0.03: real time    0.03
    FORLOC:  cpu time    0.00: real time    0.00
    FORNL :  cpu time    0.04: real time    0.04
    STRESS:  cpu time    0.30: real time    0.30
    FORCOR:  cpu time    0.01: real time    0.01
    FORHAR:  cpu time    0.00: real time    0.00

  FORCE on cell =-STRESS in cart. coord.  units (eV):
  Direction    XX          YY          ZZ          XY          YZ          ZX
  --------------------------------------------------------------------------------------
  Alpha Z     3.44082     3.44082     3.44082
  Ewald     -76.76239   -76.76239   -76.76239     0.00000     0.00000     0.00000
  Hartree     5.28967     5.28967     5.28967     0.00000     0.00000     0.00000
  E(xc)     -25.55724   -25.55724   -25.55724     0.00001     0.00001     0.00001
  Local     -29.87793   -29.87793   -29.87793     0.00005     0.00005     0.00005
  n-local    79.56380    77.28286    75.63547    -0.68683    -0.68681    -1.87303
  augment   -11.21413   -11.21413   -11.21413    -0.00004    -0.00004    -0.00004
  Kinetic    59.75748    61.23719    58.89487    -0.74858    -0.74858    -1.63316
  Fock        0.00000     0.00000     0.00000     0.00000     0.00000     0.00000
  -------------------------------------------------------------------------------------
  Total       2.77601     2.77601     2.77601     0.00000     0.00000     0.00000
  in kB     113.65291   113.65291   113.65291     0.00000     0.00000     0.00000
  external pressure =      113.65 kB  Pullay stress =        0.00 kB


 VOLUME and BASIS-vectors are now :
 -----------------------------------------------------------------------------
  energy-cutoff  :      245.00
  volume of cell :       39.13
      direct lattice vectors                 reciprocal lattice vectors
     0.000000000  2.694680000  2.694680000    -0.185550789  0.185550789  0.185550789
     2.694680000  0.000000000  2.694680000     0.185550789 -0.185550789  0.185550789
     2.694680000  2.694680000  0.000000000     0.185550789  0.185550789 -0.185550789

  length of vectors
     3.810853002  3.810853002  3.810853002     0.321383394  0.321383394  0.321383394


 FORCES acting on ions
    electron-ion (+dipol)            ewald-force                    non-local-force                 convergence-correction
 -----------------------------------------------------------------------------------------------
   0.227E-05 0.227E-05 0.246E-05   0.172E-15 0.131E-14 0.398E-14   0.208E-16 0.694E-17 -.726E-17   -.801E-08 -.801E-08 0.518E-06
   -.227E-05 -.227E-05 -.246E-05   -.397E-16 -.910E-15 -.372E-14   -.278E-16 0.486E-16 0.224E-16   0.801E-08 0.801E-08 -.518E-06
 -----------------------------------------------------------------------------------------------
   0.206E-13 0.261E-13 0.177E-13   0.133E-15 0.404E-15 0.260E-15   -.694E-17 0.555E-16 0.152E-16   0.138E-13 -.449E-14 -.178E-14
 
 
 POSITION                                       TOTAL-FORCE (eV/Angst)
 -----------------------------------------------------------------------------------
      0.00000      0.00000      0.00000         0.000000      0.000000      0.000000
      1.34734      1.34734      1.34734         0.000000      0.000000      0.000000
 -----------------------------------------------------------------------------------
    total drift:                                0.000000      0.000000      0.000000


--------------------------------------------------------------------------------------------------------


    POTLOK:  cpu time    0.01: real time    0.01


--------------------------------------------------------------------------------------------------------


 writing wavefunctions
     LOOP+:  cpu time    6.04: real time    6.04
    4ORBIT:  cpu time    0.00: real time    0.00

 total amount of memory used by VASP on root node  34796. kBytes
========================================================================

   base      :    30000. kBytes
   nonl-proj :     2315. kBytes
   fftplans  :      302. kBytes
   grid      :      970. kBytes
   one-center:        6. kBytes
   wavefun   :     1203. kBytes
 
  
  
 General timing and accounting informations for this job:
 ========================================================
  
                  Total CPU time used (sec):        6.467
                            User time (sec):        6.367
                          System time (sec):        0.100
                         Elapsed time (sec):        7.476
  
                   Maximum memory used (kb):           0.
                   Average memory used (kb):           0.
  
                          Minor page faults:        11466
                          Major page faults:           10
                 Voluntary context switches:          264
