 vasp.5.2.2 15Apr09 complex 
 executed on             LinuxIFC date 2010.03.14  18:54:34
 running on    2 nodes
 distr:  one band on    2 nodes,    1 groups


--------------------------------------------------------------------------------------------------------


 INCAR:
 POTCAR:   PAW_PBE Si 05Jan2001                   
 POTCAR:   PAW_PBE Si 05Jan2001                   
   VRHFIN =Si: s2p2                                                             
   LEXCH  = PE                                                                  
   EATOM  =   103.0669 eV,    7.5752 Ry                                         
                                                                                
   TITEL  = PAW_PBE Si 05Jan2001                                                
   LULTRA =        F    use ultrasoft PP ?                                      
   IUNSCR =        1    unscreen: 0-lin 1-nonlin 2-no                           
   RPACOR =    1.500    partial core radius                                     
   POMASS =   28.085; ZVAL   =    4.000    mass and valenz                      
   RCORE  =    1.900    outmost cutoff radius                                   
   RWIGS  =    2.480; RWIGS  =    1.312    wigner-seitz radius (au A)           
   ENMAX  =  245.345; ENMIN  =  184.009 eV                                      
   ICORE  =        2    local potential                                         
   LCOR   =        T    correct aug charges                                     
   LPAW   =        T    paw PP                                                  
   EAUG   =  322.069                                                            
   DEXC   =    -.007                                                            
   RMAX   =    2.944    core radius for proj-oper                               
   RAUG   =    1.300    factor for augmentation sphere                          
   RDEP   =    1.993    radius for radial grids                                 
   QCUT   =   -4.246; QGAM   =    8.493    optimization parameters              
                                                                                
   Description                                                                  
     l     E      TYP  RCUT    TYP  RCUT                                        
     0   .000     23  1.900                                                     
     0   .000     23  1.900                                                     
     1   .000     23  1.900                                                     
     1   .000     23  1.900                                                     
     2   .000      7  1.900                                                     
  local pseudopotential read in
  partial core-charges read in
  atomic valenz-charges read in
  non local Contribution for L=           0  read in
    real space projection operators read in
  non local Contribution for L=           0  read in
    real space projection operators read in
  non local Contribution for L=           1  read in
    real space projection operators read in
  non local Contribution for L=           1  read in
    real space projection operators read in
    PAW grid and wavefunctions read in
 
   number of l-projection  operators is LMAX  =           4
   number of lm-projection operators is LMMAX =           8
 
 PAW_PBE Si 05Jan2001                   :
 energy of atom  1       EATOM= -103.0669
 kinetic energy error for atom=    0.0056 (will be added to EATOM!!)
 
 
 POSCAR: Si                                      
  positions in direct lattice
  No initial velocities read in
 exchange correlation table for  LEXCH =        8
   RHO(1)=    0.500       N(1)  =     2000
   RHO(2)=  100.500       N(2)  =     4000
 


--------------------------------------------------------------------------------------------------------


 ion  position               nearest neighbor table
   1  0.000  0.000  0.000-   2 2.33   2 2.33   2 2.33   2 2.33
   2  0.250  0.250  0.250-   1 2.33   1 2.33   1 2.33   1 2.33
 
  LATTYP: Found a face centered cubic cell.
 ALAT       =     5.3893600000
  
  Lattice vectors:
  
 A1 = (   0.0000000000,   2.6946800000,   2.6946800000)
 A2 = (   2.6946800000,   0.0000000000,   2.6946800000)
 A3 = (   2.6946800000,   2.6946800000,   0.0000000000)
 Subroutine PRICEL returns:
 Original cell was already a primitive cell.
 

Analysis of symmetry for initial positions (statically):

 Routine SETGRP: Setting up the symmetry group for a 
 face centered cubic supercell.


 Subroutine GETGRP returns: Found 48 space group operations
 (whereof 24 operations were pure point group operations)
 out of a pool of 48 trial point group operations.


The static configuration has the point symmetry T_d .
 The point group associated with its full space group is O_h .

Analysis of symmetry for dynamics (positions and initial velocities):

 Subroutine DYNSYM returns: Found 48 space group operations
 (whereof 24 operations were pure point group operations)
 out of a pool of 48 trial space group operations
 (whereof 24 operations were pure point group operations)
 and found also     1 'primitive' translations


The dynamic configuration has the point symmetry T_d .
 The point group associated with its full space group is O_h .
 
 
 KPOINTS: Along high-sym lines                    
  interpolating k-points between supplied coordinates
  k-points in reciprocal lattice


--------------------------------------------------------------------------------------------------------




 Dimension of arrays:
   k-points           NKPTS =     40   k-points in BZ     NKDIM =     40   number of bands    NBANDS=      8
   number of dos      NEDOS =    301   number of ions     NIONS =      2
   non local maximal  LDIM  =      4   non local SUM 2l+1 LMDIM =      8
   total plane-waves  NPLWV =   4096
   max r-space proj   IRMAX =      1   max aug-charges    IRDMAX=   3699
   dimension x,y,z NGX =    16 NGY =   16 NGZ =   16
   dimension x,y,z NGXF=    32 NGYF=   32 NGZF=   32
   support grid    NGXF=    32 NGYF=   32 NGZF=   32
   ions per type =               2
 NGX,Y,Z   is equivalent  to a cutoff of   6.98,  6.98,  6.98 a.u.
 NGXF,Y,Z  is equivalent  to a cutoff of  13.96, 13.96, 13.96 a.u.


 I would recommend the setting:
   dimension x,y,z NGX =    15 NGY =   15 NGZ =   15
 SYSTEM =  Si                                      
 POSCAR =  Si                                      

 Startparameter for this run:
   NWRITE =      2    write-flag & timer
   PREC   = normal    medium, high low
   ISTART =      0    job   : 0-new  1-cont  2-samecut
   ICHARG =      0    charge: 1-file 2-atom 10-const
   ISPIN  =      1    spin polarized calculation?
   LNONCOLLINEAR =      F non collinear calculations
   LSORBIT =      F    spin-orbit coupling
   INIWAV =      1    electr: 0-lowe 1-rand  2-diag
   LASPH  =      F    aspherical Exc in radial PAW
   METAGGA=      F    non-selfconsistent MetaGGA calc.

 Electronic Relaxation 1
   ENCUT  =  245.0 eV  18.01 Ry    4.24 a.u.   4.86  4.86  4.86*2*pi/ulx,y,z
   ENINI  =  245.0     initial cutoff
   ENAUG  =  322.1 eV  augmentation charge cutoff
   NELM   =     60;   NELMIN=  6; NELMDL= -5     # of ELM steps 
   EDIFF  = 0.1E-05   stopping-criterion for ELM
   LREAL  =      F    real-space projection
   LCOMPAT=      F    compatible to vasp.4.4
   LREAL_COMPAT= F    compatible to vasp.4.5.1-3
   GGA_COMPAT  = T    GGA compatible to vasp.4.4-vasp.4.6
   LMAXPAW     = -100 max onsite density
   LMAXMIX     =    2 max onsite mixed and CHGCAR
   VOSKOWN=      0    Vosko Wilk Nusair interpolation
   ROPT   =    0.00000
 Ionic relaxation
   EDIFFG = 0.1E-04   stopping-criterion for IOM
   NSW    =      0    number of steps for IOM
   NBLOCK =      1;   KBLOCK =      1    inner block; outer block 
   IBRION =     -1    ionic relax: 0-MD 1-quasi-New 2-CG
   NFREE  =      0    steps in history (QN), initial steepest desc. (CG)
   ISIF   =      2    stress and relaxation
   IWAVPR =     10    prediction:  0-non 1-charg 2-wave 3-comb
   ISYM   =      2    0-nonsym 1-usesym 2-fastsym
   LCORR  =      T    Harris-Foulkes like correction to forces

   POTIM  = 0.5000    time-step for ionic-motion
   TEIN   =    0.0    initial temperature
   TEBEG  =    0.0;   TEEND  =   0.0 temperature during run
   SMASS  =  -3.00    Nose mass-parameter (am)
   estimated Nose-frequenzy (Omega)   =  0.10E-29 period in steps =****** mass=  -0.332E-27a.u.
   NPACO  =    256;   APACO  = 16.0  distance and # of slots for P.C.
   PSTRESS=    0.0 pullay stress

  Mass of Ions in am
   POMASS =  28.09
  Ionic Valenz
   ZVAL   =   4.00
  Atomic Wigner-Seitz radii
   RWIGS  =   1.67
   NELECT =       8.0000    total number of electrons
   NUPDOWN=      -1.0000    fix difference up-down

 DOS related values:
   EMIN   =  10.00;   EMAX   =-10.00  energy-range for DOS
   EFERMI =   0.00
   ISMEAR =     2;   SIGMA  =   0.05  broadening in eV -4-tet -1-fermi 0-gaus

 Electronic relaxation 2 (details)
   IALGO  =     38    algorithm
   LDIAG  =      T    sub-space diagonalisation
   IMIX   =      4    mixing-type and parameters
     AMIX     =   0.40;   BMIX     =  1.00
     AMIX_MAG =   1.60;   BMIX_MAG =  1.00
     AMIN     =   0.10
     WC   =   100.;   INIMIX=   1;  MIXPRE=   1

 Intra band minimization:
   WEIMIN = 0.0000     energy-eigenvalue tresh-hold
   EBREAK =  0.31E-07  absolut break condition
   DEPER  =   0.30     relativ break condition  

   TIME   =   0.40     timestep for ELM

  volume/ion in A,a.u.               =      19.57       132.04
  Fermi-wavevector in a.u.,A,eV,Ry     =   0.964394  1.822440 12.654165  0.930055
  Thomas-Fermi vector in A             =   2.094021
 
 Write flags
   LWAVE  =      T    write WAVECAR
   LCHARG =      T    write CHGCAR
   LVTOT  =      F    write LOCPOT, local potential
   LELF   =      F    write electronic localiz. function (ELF)
   LORBIT =     10    0 simple, 1 ext, 2 COOP (PROOUT)


 Dipole corrections
   LMONO  =      F    monopole corrections only (constant potential shift)
   LDIPOL =      F    correct potential (dipole corrections)
   IDIPOL =      0    1-x, 2-y, 3-z, 4-all directions 
   EPSILON=  1.0000000 bulk dielectric constant

 Exchange correlation treatment:
   GGA     =    --    GGA type
   LEXCH   =     8    internal setting for exchange type
   VOSKOWN=      0    Vosko Wilk Nusair interpolation
   LHFCALC =     F    Hartree Fock is set to
   LHFONE  =     F    Hartree Fock one center treatment
   AEXX    =    0.0000 exact exchange contribution

 Linear response parameters
   LEPSILON=     F    determine dielectric tensor
   LRPA    =     F    only Hartree local field effects (RPA)
   LNABLA  =     F    use nabla operator in PAW spheres
   LVEL    =     F    velocity operator in full k-point grid
   LINTERFAST=   F  fast interpolation
   KINTER  =     0    interpolate to denser k-point grid
   CSHIFT  =0.1000    complex shift for real part using Kramers Kronig
   OMEGAMAX=  -1.0    maximum frequency

 Orbital magnetization related:
   ORBITALMAG=     F  switch on orbital magnetization
   LCHIMAG   =     F  perturbation theory with respect to B field



--------------------------------------------------------------------------------------------------------


 Static calculation
 charge density and potential will be updated during run
 non-spin polarized calculation
 Variant of blocked Davidson
 Davidson routine will perform the subspace rotation
 perform sub-space diagonalisation
    after iterative eigenvector-optimisation
 modified Broyden-mixing scheme, WC =      100.0
 initial mixing is a Kerker type mixing with AMIX =  0.4000 and BMIX =      1.0000
 Hartree-type preconditioning will be used
 using additional bands            4
 reciprocal scheme for non local part
 use partial core corrections
 calculate Harris-corrections to forces 
   (improved forces if not selfconsistent)
 use gradient corrections 
 use of overlap-Matrix (Vanderbilt PP)
 Methfessel and Paxton  Order N= 2 SIGMA  =   0.05


--------------------------------------------------------------------------------------------------------


  energy-cutoff  :      245.00
  volume of cell :       39.13
      direct lattice vectors                 reciprocal lattice vectors
     0.000000000  2.694680000  2.694680000    -0.185550789  0.185550789  0.185550789
     2.694680000  0.000000000  2.694680000     0.185550789 -0.185550789  0.185550789
     2.694680000  2.694680000  0.000000000     0.185550789  0.185550789 -0.185550789

  length of vectors
     3.810853002  3.810853002  3.810853002     0.321383394  0.321383394  0.321383394


 
 k-points in units of 2pi/SCALE and weight: Along high-sym lines                    
   0.50000000  0.50000000  0.50000000       0.025
   0.47368421  0.47368421  0.47368421       0.025
   0.44736842  0.44736842  0.44736842       0.025
   0.42105263  0.42105263  0.42105263       0.025
   0.39473684  0.39473684  0.39473684       0.025
   0.36842105  0.36842105  0.36842105       0.025
   0.34210526  0.34210526  0.34210526       0.025
   0.31578947  0.31578947  0.31578947       0.025
   0.28947368  0.28947368  0.28947368       0.025
   0.26315789  0.26315789  0.26315789       0.025
   0.23684211  0.23684211  0.23684211       0.025
   0.21052632  0.21052632  0.21052632       0.025
   0.18421053  0.18421053  0.18421053       0.025
   0.15789474  0.15789474  0.15789474       0.025
   0.13157895  0.13157895  0.13157895       0.025
   0.10526316  0.10526316  0.10526316       0.025
   0.07894737  0.07894737  0.07894737       0.025
   0.05263158  0.05263158  0.05263158       0.025
   0.02631579  0.02631579  0.02631579       0.025
   0.00000000  0.00000000  0.00000000       0.025
   0.00000000  0.00000000  0.00000000       0.025
   0.00000000  0.00000000  0.05263158       0.025
   0.00000000  0.00000000  0.10526316       0.025
   0.00000000  0.00000000  0.15789474       0.025
   0.00000000  0.00000000  0.21052632       0.025
   0.00000000  0.00000000  0.26315789       0.025
   0.00000000  0.00000000  0.31578947       0.025
   0.00000000  0.00000000  0.36842105       0.025
   0.00000000  0.00000000  0.42105263       0.025
   0.00000000  0.00000000  0.47368421       0.025
   0.00000000  0.00000000  0.52631579       0.025
   0.00000000  0.00000000  0.57894737       0.025
   0.00000000  0.00000000  0.63157895       0.025
   0.00000000  0.00000000  0.68421053       0.025
   0.00000000  0.00000000  0.73684211       0.025
   0.00000000  0.00000000  0.78947368       0.025
   0.00000000  0.00000000  0.84210526       0.025
   0.00000000  0.00000000  0.89473684       0.025
   0.00000000  0.00000000  0.94736842       0.025
   0.00000000  0.00000000  1.00000000       0.025
 
 k-points in reciprocal lattice and weights: Along high-sym lines                    
   0.50000000  0.50000000  0.50000000       0.025
   0.47368421  0.47368421  0.47368421       0.025
   0.44736842  0.44736842  0.44736842       0.025
   0.42105263  0.42105263  0.42105263       0.025
   0.39473684  0.39473684  0.39473684       0.025
   0.36842105  0.36842105  0.36842105       0.025
   0.34210526  0.34210526  0.34210526       0.025
   0.31578947  0.31578947  0.31578947       0.025
   0.28947368  0.28947368  0.28947368       0.025
   0.26315789  0.26315789  0.26315789       0.025
   0.23684211  0.23684211  0.23684211       0.025
   0.21052632  0.21052632  0.21052632       0.025
   0.18421053  0.18421053  0.18421053       0.025
   0.15789474  0.15789474  0.15789474       0.025
   0.13157895  0.13157895  0.13157895       0.025
   0.10526316  0.10526316  0.10526316       0.025
   0.07894737  0.07894737  0.07894737       0.025
   0.05263158  0.05263158  0.05263158       0.025
   0.02631579  0.02631579  0.02631579       0.025
   0.00000000  0.00000000  0.00000000       0.025
   0.00000000  0.00000000  0.00000000       0.025
   0.02631579  0.02631579  0.00000000       0.025
   0.05263158  0.05263158  0.00000000       0.025
   0.07894737  0.07894737  0.00000000       0.025
   0.10526316  0.10526316  0.00000000       0.025
   0.13157895  0.13157895  0.00000000       0.025
   0.15789474  0.15789474  0.00000000       0.025
   0.18421053  0.18421053  0.00000000       0.025
   0.21052632  0.21052632  0.00000000       0.025
   0.23684211  0.23684211  0.00000000       0.025
   0.26315789  0.26315789  0.00000000       0.025
   0.28947368  0.28947368  0.00000000       0.025
   0.31578947  0.31578947  0.00000000       0.025
   0.34210526  0.34210526  0.00000000       0.025
   0.36842105  0.36842105  0.00000000       0.025
   0.39473684  0.39473684  0.00000000       0.025
   0.42105263  0.42105263  0.00000000       0.025
   0.44736842  0.44736842  0.00000000       0.025
   0.47368421  0.47368421  0.00000000       0.025
   0.50000000  0.50000000  0.00000000       0.025
 
 position of ions in fractional coordinates (direct lattice) 
   0.00000000  0.00000000  0.00000000
   0.25000000  0.25000000  0.25000000
 
 position of ions in cartesian coordinates  (Angst):
   0.00000000  0.00000000  0.00000000
   1.34734000  1.34734000  1.34734000
 


--------------------------------------------------------------------------------------------------------


 k-point  1 :  0.50000.50000.5000  plane waves:     344
 k-point  2 :  0.47370.47370.4737  plane waves:     341
 k-point  3 :  0.44740.44740.4474  plane waves:     341
 k-point  4 :  0.42110.42110.4211  plane waves:     344
 k-point  5 :  0.39470.39470.3947  plane waves:     344
 k-point  6 :  0.36840.36840.3684  plane waves:     344
 k-point  7 :  0.34210.34210.3421  plane waves:     344
 k-point  8 :  0.31580.31580.3158  plane waves:     344
 k-point  9 :  0.28950.28950.2895  plane waves:     344
 k-point 10 :  0.26320.26320.2632  plane waves:     338
 k-point 11 :  0.23680.23680.2368  plane waves:     338
 k-point 12 :  0.21050.21050.2105  plane waves:     332
 k-point 13 :  0.18420.18420.1842  plane waves:     335
 k-point 14 :  0.15790.15790.1579  plane waves:     335
 k-point 15 :  0.13160.13160.1316  plane waves:     335
 k-point 16 :  0.10530.10530.1053  plane waves:     335
 k-point 17 :  0.07890.07890.0789  plane waves:     332
 k-point 18 :  0.05260.05260.0526  plane waves:     332
 k-point 19 :  0.02630.02630.0263  plane waves:     331
 k-point 20 :  0.00000.00000.0000  plane waves:     331
 k-point 21 :  0.00000.00000.0000  plane waves:     331
 k-point 22 :  0.02630.02630.0000  plane waves:     331
 k-point 23 :  0.05260.05260.0000  plane waves:     335
 k-point 24 :  0.07890.07890.0000  plane waves:     335
 k-point 25 :  0.10530.10530.0000  plane waves:     335
 k-point 26 :  0.13160.13160.0000  plane waves:     335
 k-point 27 :  0.15790.15790.0000  plane waves:     335
 k-point 28 :  0.18420.18420.0000  plane waves:     335
 k-point 29 :  0.21050.21050.0000  plane waves:     343
 k-point 30 :  0.23680.23680.0000  plane waves:     343
 k-point 31 :  0.26320.26320.0000  plane waves:     343
 k-point 32 :  0.28950.28950.0000  plane waves:     343
 k-point 33 :  0.31580.31580.0000  plane waves:     339
 k-point 34 :  0.34210.34210.0000  plane waves:     335
 k-point 35 :  0.36840.36840.0000  plane waves:     327
 k-point 36 :  0.39470.39470.0000  plane waves:     335
 k-point 37 :  0.42110.42110.0000  plane waves:     335
 k-point 38 :  0.44740.44740.0000  plane waves:     342
 k-point 39 :  0.47370.47370.0000  plane waves:     342
 k-point 40 :  0.50000.50000.0000  plane waves:     342

 maximum and minimum number of plane-waves per node :     178    161

 maximum number of plane-waves:     344
 maximal index in each direction: 
   IXMAX=  4   IYMAX=  4   IZMAX=  4
   IXMIN= -5   IYMIN= -5   IZMIN= -5

 WARNING: aliasing errors must be expected set NGX to  20 to avoid them
 WARNING: aliasing errors must be expected set NGY to  20 to avoid them
 WARNING: aliasing errors must be expected set NGZ to  20 to avoid them
 aliasing errors are usually negligible using standard VASP settings
 and one can safely disregard these warnings

 parallel 3D FFT for wavefunctions:
    minimum data exchange during FFTs selected (reduces bandwidth)
 parallel 3D FFT for charge:
    minimum data exchange during FFTs selected (reduces bandwidth)


 total amount of memory used by VASP on root node  33182. kBytes
========================================================================

   base      :    30000. kBytes
   nonl-proj :      448. kBytes
   fftplans  :      640. kBytes
   grid      :     1165. kBytes
   one-center:        3. kBytes
   wavefun   :      926. kBytes
 
 Broyden mixing: mesh for mixing (old mesh)
   NGX =  9   NGY =  9   NGZ =  9
  (NGX  = 32   NGY  = 32   NGZ  = 32)
  gives a total of    729 points

 charge density for first step will be calculated from the start-wavefunctions


--------------------------------------------------------------------------------------------------------


 Maximum index for augmentation-charges         1689 (set IRDMAX)


--------------------------------------------------------------------------------------------------------


 initial charge from wavefunction
 First call to EWALD:  gamma=   0.522
 Maximum number of real-space cells 3x 3x 3
 Maximum number of reciprocal cells 3x 3x 3

    FEWALD:  cpu time    0.00: real time    0.00
   RESPFUN:  cpu time    0.00: real time    0.00


----------------------------------------- Iteration    1(   1)  ---------------------------------------


    POTLOK:  cpu time    0.02: real time    0.02
    SETDIJ:  cpu time    0.00: real time    0.00
     EDDAV:  cpu time    0.29: real time    0.29
       DOS:  cpu time    0.00: real time    0.00
    --------------------------------------------
      LOOP:  cpu time    0.32: real time    0.32

 eigenvalue-minimisations  :   640
 total energy-change (2. order) : 0.4539626E+01  (-0.2359142E+03)
 number of electron    7.9999981 magnetization 
 augmentation part    -1.3272952 magnetization 

 Free energy of the ion-electron system (eV)
  ---------------------------------------------------
  alpha Z        PSCENC =         3.44082216
  Ewald energy   TEWEN  =      -230.28707311
  -1/2 Hartree   DENC   =        -4.37264916
  -exchange  EXHF       =         0.00000000
  -V(xc)+E(xc)   XCENC  =       -20.36852116
  PAW double counting   =       140.62422280     -103.88170188
  entropy T*S    EENTRO =        -0.00013149
  eigenvalues    EBANDS =        13.26215460
  atomic energy  EATOM  =       206.12250364
  ---------------------------------------------------
  free energy    TOTEN  =         4.53962639 eV

  energy without entropy =        4.53975788  energy(sigma->0) =        4.53965926


--------------------------------------------------------------------------------------------------------




----------------------------------------- Iteration    1(   2)  ---------------------------------------


     EDDAV:  cpu time    0.57: real time    0.58
       DOS:  cpu time    0.00: real time    0.00
    --------------------------------------------
      LOOP:  cpu time    0.58: real time    0.58

 eigenvalue-minimisations  :  1056
 total energy-change (2. order) :-0.1617976E+02  (-0.1519337E+02)
 number of electron    7.9999981 magnetization 
 augmentation part    -1.3272952 magnetization 

 Free energy of the ion-electron system (eV)
  ---------------------------------------------------
  alpha Z        PSCENC =         3.44082216
  Ewald energy   TEWEN  =      -230.28707311
  -1/2 Hartree   DENC   =        -4.37264916
  -exchange  EXHF       =         0.00000000
  -V(xc)+E(xc)   XCENC  =       -20.36852116
  PAW double counting   =       140.62422280     -103.88170188
  entropy T*S    EENTRO =         0.00006883
  eigenvalues    EBANDS =        -2.91781004
  atomic energy  EATOM  =       206.12250364
  ---------------------------------------------------
  free energy    TOTEN  =       -11.64013793 eV

  energy without entropy =      -11.64020676  energy(sigma->0) =      -11.64015514


--------------------------------------------------------------------------------------------------------




----------------------------------------- Iteration    1(   3)  ---------------------------------------


     EDDAV:  cpu time    0.40: real time    0.40
       DOS:  cpu time    0.00: real time    0.00
    --------------------------------------------
      LOOP:  cpu time    0.40: real time    0.40

 eigenvalue-minimisations  :   800
 total energy-change (2. order) :-0.2307444E+00  (-0.2306756E+00)
 number of electron    7.9999981 magnetization 
 augmentation part    -1.3272952 magnetization 

 Free energy of the ion-electron system (eV)
  ---------------------------------------------------
  alpha Z        PSCENC =         3.44082216
  Ewald energy   TEWEN  =      -230.28707311
  -1/2 Hartree   DENC   =        -4.37264916
  -exchange  EXHF       =         0.00000000
  -V(xc)+E(xc)   XCENC  =       -20.36852116
  PAW double counting   =       140.62422280     -103.88170188
  entropy T*S    EENTRO =         0.00000000
  eigenvalues    EBANDS =        -3.14848559
  atomic energy  EATOM  =       206.12250364
  ---------------------------------------------------
  free energy    TOTEN  =       -11.87088231 eV

  energy without entropy =      -11.87088231  energy(sigma->0) =      -11.87088231


--------------------------------------------------------------------------------------------------------




----------------------------------------- Iteration    1(   4)  ---------------------------------------


     EDDAV:  cpu time    0.56: real time    0.57
       DOS:  cpu time    0.00: real time    0.00
    --------------------------------------------
      LOOP:  cpu time    0.57: real time    0.57

 eigenvalue-minimisations  :  1048
 total energy-change (2. order) :-0.6984847E-03  (-0.1228967E-02)
 number of electron    7.9999981 magnetization 
 augmentation part    -1.3272952 magnetization 

 Free energy of the ion-electron system (eV)
  ---------------------------------------------------
  alpha Z        PSCENC =         3.44082216
  Ewald energy   TEWEN  =      -230.28707311
  -1/2 Hartree   DENC   =        -4.37264916
  -exchange  EXHF       =         0.00000000
  -V(xc)+E(xc)   XCENC  =       -20.36852116
  PAW double counting   =       140.62422280     -103.88170188
  entropy T*S    EENTRO =         0.00070771
  eigenvalues    EBANDS =        -3.14989178
  atomic energy  EATOM  =       206.12250364
  ---------------------------------------------------
  free energy    TOTEN  =       -11.87158079 eV

  energy without entropy =      -11.87228850  energy(sigma->0) =      -11.87175772


--------------------------------------------------------------------------------------------------------




----------------------------------------- Iteration    1(   5)  ---------------------------------------


     EDDAV:  cpu time    0.38: real time    0.38
       DOS:  cpu time    0.00: real time    0.00
    CHARGE:  cpu time    0.01: real time    0.01
    MIXING:  cpu time    0.00: real time    0.00
    --------------------------------------------
      LOOP:  cpu time    0.40: real time    0.40

 eigenvalue-minimisations  :   784
 total energy-change (2. order) :-0.4071418E-05  (-0.4071175E-05)
 number of electron    7.9999993 magnetization 
 augmentation part    -0.4650424 magnetization 

 Broyden mixing:
  rms(total) = 0.19841E+01    rms(broyden)= 0.19581E+01
  rms(prec ) = 0.47274E+01
  weight for this iteration     100.00

 Free energy of the ion-electron system (eV)
  ---------------------------------------------------
  alpha Z        PSCENC =         3.44082216
  Ewald energy   TEWEN  =      -230.28707311
  -1/2 Hartree   DENC   =        -4.37264916
  -exchange  EXHF       =         0.00000000
  -V(xc)+E(xc)   XCENC  =       -20.36852116
  PAW double counting   =       140.62422280     -103.88170188
  entropy T*S    EENTRO =         0.00070778
  eigenvalues    EBANDS =        -3.14989592
  atomic energy  EATOM  =       206.12250364
  ---------------------------------------------------
  free energy    TOTEN  =       -11.87158487 eV

  energy without entropy =      -11.87229264  energy(sigma->0) =      -11.87176181


--------------------------------------------------------------------------------------------------------




----------------------------------------- Iteration    1(   6)  ---------------------------------------


    POTLOK:  cpu time    0.02: real time    0.02
    SETDIJ:  cpu time    0.00: real time    0.00
     EDDAV:  cpu time    0.37: real time    0.37
       DOS:  cpu time    0.00: real time    0.00
    CHARGE:  cpu time    0.01: real time    0.01
    MIXING:  cpu time    0.00: real time    0.00
    --------------------------------------------
      LOOP:  cpu time    0.41: real time    0.41

 eigenvalue-minimisations  :   768
 total energy-change (2. order) : 0.5513363E+01  (-0.1726666E+00)
 number of electron    7.9999994 magnetization 
 augmentation part    -0.4375049 magnetization 

 Broyden mixing:
  rms(total) = 0.11800E+01    rms(broyden)= 0.11783E+01
  rms(prec ) = 0.28700E+01
  weight for this iteration     100.00

 eigenvalues of (default mixing * dielectric matrix)
  average eigenvalue GAMMA=   2.4961
  2.4961

 Free energy of the ion-electron system (eV)
  ---------------------------------------------------
  alpha Z        PSCENC =         3.44082216
  Ewald energy   TEWEN  =      -230.28707311
  -1/2 Hartree   DENC   =        -5.96800014
  -exchange  EXHF       =         0.00000000
  -V(xc)+E(xc)   XCENC  =       -20.22927534
  PAW double counting   =       117.41427479      -81.56955463
  entropy T*S    EENTRO =         0.00042184
  eigenvalues    EBANDS =         4.71765919
  atomic energy  EATOM  =       206.12250364
  ---------------------------------------------------
  free energy    TOTEN  =        -6.35822160 eV

  energy without entropy =       -6.35864344  energy(sigma->0) =       -6.35832706


--------------------------------------------------------------------------------------------------------




----------------------------------------- Iteration    1(   7)  ---------------------------------------


    POTLOK:  cpu time    0.02: real time    0.02
    SETDIJ:  cpu time    0.00: real time    0.00
     EDDAV:  cpu time    0.38: real time    0.39
       DOS:  cpu time    0.00: real time    0.00
    CHARGE:  cpu time    0.02: real time    0.02
    MIXING:  cpu time    0.00: real time    0.00
    --------------------------------------------
      LOOP:  cpu time    0.43: real time    0.43

 eigenvalue-minimisations  :   792
 total energy-change (2. order) : 0.2807748E+01  (-0.5165128E+00)
 number of electron    7.9999994 magnetization 
 augmentation part    -0.4022183 magnetization 

 Broyden mixing:
  rms(total) = 0.10941E+00    rms(broyden)= 0.10874E+00
  rms(prec ) = 0.26830E+00
  weight for this iteration     100.00

 eigenvalues of (default mixing * dielectric matrix)
  average eigenvalue GAMMA=   2.0493
  2.3349  1.7637

 Free energy of the ion-electron system (eV)
  ---------------------------------------------------
  alpha Z        PSCENC =         3.44082216
  Ewald energy   TEWEN  =      -230.28707311
  -1/2 Hartree   DENC   =       -18.43650647
  -exchange  EXHF       =         0.00000000
  -V(xc)+E(xc)   XCENC  =       -17.43782631
  PAW double counting   =        80.38533039      -45.66428379
  entropy T*S    EENTRO =         0.00038003
  eigenvalues    EBANDS =        18.32617961
  atomic energy  EATOM  =       206.12250364
  ---------------------------------------------------
  free energy    TOTEN  =        -3.55047386 eV

  energy without entropy =       -3.55085389  energy(sigma->0) =       -3.55056887


--------------------------------------------------------------------------------------------------------




----------------------------------------- Iteration    1(   8)  ---------------------------------------


    POTLOK:  cpu time    0.02: real time    0.02
    SETDIJ:  cpu time    0.00: real time    0.00
     EDDAV:  cpu time    0.33: real time    0.33
       DOS:  cpu time    0.00: real time    0.00
    CHARGE:  cpu time    0.02: real time    0.02
    MIXING:  cpu time    0.00: real time    0.00
    --------------------------------------------
      LOOP:  cpu time    0.37: real time    0.37

 eigenvalue-minimisations  :   704
 total energy-change (2. order) :-0.4589464E-01  (-0.1166367E-01)
 number of electron    7.9999994 magnetization 
 augmentation part    -0.4078593 magnetization 

 Broyden mixing:
  rms(total) = 0.53332E-01    rms(broyden)= 0.53265E-01
  rms(prec ) = 0.14159E+00
  weight for this iteration     100.00

 eigenvalues of (default mixing * dielectric matrix)
  average eigenvalue GAMMA=   2.0606
  0.9893  2.7507  2.4419

 Free energy of the ion-electron system (eV)
  ---------------------------------------------------
  alpha Z        PSCENC =         3.44082216
  Ewald energy   TEWEN  =      -230.28707311
  -1/2 Hartree   DENC   =       -17.03771229
  -exchange  EXHF       =         0.00000000
  -V(xc)+E(xc)   XCENC  =       -17.65745299
  PAW double counting   =        77.96951037      -43.07620407
  entropy T*S    EENTRO =         0.00048653
  eigenvalues    EBANDS =        16.92875126
  atomic energy  EATOM  =       206.12250364
  ---------------------------------------------------
  free energy    TOTEN  =        -3.59636850 eV

  energy without entropy =       -3.59685503  energy(sigma->0) =       -3.59649013


--------------------------------------------------------------------------------------------------------




----------------------------------------- Iteration    1(   9)  ---------------------------------------


    POTLOK:  cpu time    0.02: real time    0.02
    SETDIJ:  cpu time    0.00: real time    0.00
     EDDAV:  cpu time    0.34: real time    0.34
       DOS:  cpu time    0.00: real time    0.00
    CHARGE:  cpu time    0.02: real time    0.02
    MIXING:  cpu time    0.00: real time    0.00
    --------------------------------------------
      LOOP:  cpu time    0.39: real time    0.39

 eigenvalue-minimisations  :   744
 total energy-change (2. order) :-0.1095259E-01  (-0.1762674E-02)
 number of electron    7.9999994 magnetization 
 augmentation part    -0.4079777 magnetization 

 Broyden mixing:
  rms(total) = 0.65471E-02    rms(broyden)= 0.65228E-02
  rms(prec ) = 0.21598E-01
  weight for this iteration     100.00

 eigenvalues of (default mixing * dielectric matrix)
  average eigenvalue GAMMA=   2.2064
  1.0206  3.1892  2.4470  2.1688

 Free energy of the ion-electron system (eV)
  ---------------------------------------------------
  alpha Z        PSCENC =         3.44082216
  Ewald energy   TEWEN  =      -230.28707311
  -1/2 Hartree   DENC   =       -17.84916327
  -exchange  EXHF       =         0.00000000
  -V(xc)+E(xc)   XCENC  =       -17.45922393
  PAW double counting   =        76.02615086      -41.14537566
  entropy T*S    EENTRO =         0.00048237
  eigenvalues    EBANDS =        17.54355585
  atomic energy  EATOM  =       206.12250364
  ---------------------------------------------------
  free energy    TOTEN  =        -3.60732109 eV

  energy without entropy =       -3.60780346  energy(sigma->0) =       -3.60744168


--------------------------------------------------------------------------------------------------------




----------------------------------------- Iteration    1(  10)  ---------------------------------------


    POTLOK:  cpu time    0.02: real time    0.02
    SETDIJ:  cpu time    0.00: real time    0.00
     EDDAV:  cpu time    0.32: real time    0.32
       DOS:  cpu time    0.00: real time    0.00
    CHARGE:  cpu time    0.02: real time    0.02
    MIXING:  cpu time    0.00: real time    0.00
    --------------------------------------------
      LOOP:  cpu time    0.37: real time    0.37

 eigenvalue-minimisations  :   704
 total energy-change (2. order) :-0.2108680E-03  (-0.2431376E-03)
 number of electron    7.9999994 magnetization 
 augmentation part    -0.4072879 magnetization 

 Broyden mixing:
  rms(total) = 0.33229E-02    rms(broyden)= 0.33206E-02
  rms(prec ) = 0.10600E-01
  weight for this iteration     100.00

 eigenvalues of (default mixing * dielectric matrix)
  average eigenvalue GAMMA=   1.9773
  3.1751  2.5472  2.1824  1.0554  0.9265

 Free energy of the ion-electron system (eV)
  ---------------------------------------------------
  alpha Z        PSCENC =         3.44082216
  Ewald energy   TEWEN  =      -230.28707311
  -1/2 Hartree   DENC   =       -18.04755533
  -exchange  EXHF       =         0.00000000
  -V(xc)+E(xc)   XCENC  =       -17.44554386
  PAW double counting   =        76.67176999      -41.80899132
  entropy T*S    EENTRO =         0.00048081
  eigenvalues    EBANDS =        17.74605506
  atomic energy  EATOM  =       206.12250364
  ---------------------------------------------------
  free energy    TOTEN  =        -3.60753196 eV

  energy without entropy =       -3.60801277  energy(sigma->0) =       -3.60765216


--------------------------------------------------------------------------------------------------------




----------------------------------------- Iteration    1(  11)  ---------------------------------------


    POTLOK:  cpu time    0.02: real time    0.02
    SETDIJ:  cpu time    0.00: real time    0.00
     EDDAV:  cpu time    0.33: real time    0.33
       DOS:  cpu time    0.00: real time    0.00
    CHARGE:  cpu time    0.02: real time    0.02
    MIXING:  cpu time    0.00: real time    0.00
    --------------------------------------------
      LOOP:  cpu time    0.38: real time    0.38

 eigenvalue-minimisations  :   712
 total energy-change (2. order) :-0.1417371E-03  (-0.2371239E-04)
 number of electron    7.9999994 magnetization 
 augmentation part    -0.4074152 magnetization 

 Broyden mixing:
  rms(total) = 0.50143E-03    rms(broyden)= 0.50055E-03
  rms(prec ) = 0.91227E-03
  weight for this iteration     100.00

 eigenvalues of (default mixing * dielectric matrix)
  average eigenvalue GAMMA=   2.0790
  3.4385  2.4687  2.6249  1.8309  0.9944  1.1167

 Free energy of the ion-electron system (eV)
  ---------------------------------------------------
  alpha Z        PSCENC =         3.44082216
  Ewald energy   TEWEN  =      -230.28707311
  -1/2 Hartree   DENC   =       -17.97380594
  -exchange  EXHF       =         0.00000000
  -V(xc)+E(xc)   XCENC  =       -17.45872884
  PAW double counting   =        76.67127145      -41.80465410
  entropy T*S    EENTRO =         0.00048119
  eigenvalues    EBANDS =        17.68150985
  atomic energy  EATOM  =       206.12250364
  ---------------------------------------------------
  free energy    TOTEN  =        -3.60767370 eV

  energy without entropy =       -3.60815489  energy(sigma->0) =       -3.60779400


--------------------------------------------------------------------------------------------------------




----------------------------------------- Iteration    1(  12)  ---------------------------------------


    POTLOK:  cpu time    0.02: real time    0.02
    SETDIJ:  cpu time    0.00: real time    0.00
     EDDAV:  cpu time    0.49: real time    0.50
       DOS:  cpu time    0.00: real time    0.00
    --------------------------------------------
      LOOP:  cpu time    0.52: real time    0.52

 eigenvalue-minimisations  :   960
 total energy-change (2. order) :-0.9993044E-06  (-0.8793671E-07)
 number of electron    7.9999994 magnetization 
 augmentation part    -0.4074152 magnetization 

 Free energy of the ion-electron system (eV)
  ---------------------------------------------------
  alpha Z        PSCENC =         3.44082216
  Ewald energy   TEWEN  =      -230.28707311
  -1/2 Hartree   DENC   =       -17.97679848
  -exchange  EXHF       =         0.00000000
  -V(xc)+E(xc)   XCENC  =       -17.45850715
  PAW double counting   =        76.66560470      -41.79893814
  entropy T*S    EENTRO =         0.00048117
  eigenvalues    EBANDS =        17.68423053
  atomic energy  EATOM  =       206.12250364
  ---------------------------------------------------
  free energy    TOTEN  =        -3.60767470 eV

  energy without entropy =       -3.60815586  energy(sigma->0) =       -3.60779499


--------------------------------------------------------------------------------------------------------




 average (electrostatic) potential at core
  the test charge radii are     0.9892
  (the norm of the test charge is              1.0000)
       1 -82.2648       2 -82.2648
 
 
 
 E-fermi :   6.5446     XC(G=0):  -9.2628     alpha+bet :-12.2577
   add alpha+bet to get absolut eigen values

 k-point   1 :       0.5000    0.5000    0.5000
  band No.  band energies     occupation 
      1      -3.2777      2.00000
      2      -0.6905      2.00000
      3       5.2512      2.00000
      4       5.2512      2.00000
      5       8.0546      0.00000
      6       9.6451      0.00000
      7       9.6451      0.00000
      8      14.0421      0.00000

 k-point   2 :       0.4737    0.4737    0.4737
  band No.  band energies     occupation 
      1      -3.3201      2.00000
      2      -0.6305      2.00000
      3       5.2563      2.00000
      4       5.2563      2.00000
      5       8.0618      0.00000
      6       9.6518      0.00000
      7       9.6518      0.00000
      8      14.0524      0.00000

 k-point   3 :       0.4474    0.4474    0.4474
  band No.  band energies     occupation 
      1      -3.4366      2.00000
      2      -0.4614      2.00000
      3       5.2714      2.00000
      4       5.2714      2.00000
      5       8.0785      0.00000
      6       9.6714      0.00000
      7       9.6714      0.00000
      8      14.0816      0.00000

 k-point   4 :       0.4211    0.4211    0.4211
  band No.  band energies     occupation 
      1      -3.6044      2.00000
      2      -0.2064      2.00000
      3       5.2966      2.00000
      4       5.2966      2.00000
      5       8.1065      0.00000
      6       9.7044      0.00000
      7       9.7044      0.00000
      8      14.1280      0.00000

 k-point   5 :       0.3947    0.3947    0.3947
  band No.  band energies     occupation 
      1      -3.7999      2.00000
      2       0.1115      2.00000
      3       5.3319      2.00000
      4       5.3319      2.00000
      5       8.1451      0.00000
      6       9.7446      0.00000
      7       9.7446      0.00000
      8      14.1876      0.00000

 k-point   6 :       0.3684    0.3684    0.3684
  band No.  band energies     occupation 
      1      -4.0076      2.00000
      2       0.4768      2.00000
      3       5.3769      2.00000
      4       5.3769      2.00000
      5       8.1944      0.00000
      6       9.7893      0.00000
      7       9.7893      0.00000
      8      14.2528      0.00000

 k-point   7 :       0.3421    0.3421    0.3421
  band No.  band energies     occupation 
      1      -4.2167      2.00000
      2       0.8766      2.00000
      3       5.4323      2.00000
      4       5.4323      2.00000
      5       8.2541      0.00000
      6       9.8350      0.00000
      7       9.8350      0.00000
      8      14.2992      0.00000

 k-point   8 :       0.3158    0.3158    0.3158
  band No.  band energies     occupation 
      1      -4.4207      2.00000
      2       1.3045      2.00000
      3       5.4974      2.00000
      4       5.4974      2.00000
      5       8.3235      0.00000
      6       9.8742      0.00000
      7       9.8742      0.00000
      8      14.2764      0.00000

 k-point   9 :       0.2895    0.2895    0.2895
  band No.  band energies     occupation 
      1      -4.6151      2.00000
      2       1.7553      2.00000
      3       5.5721      2.00000
      4       5.5721      2.00000
      5       8.4019      0.00000
      6       9.8983      0.00000
      7       9.8983      0.00000
      8      13.8604      0.00000

 k-point  10 :       0.2632    0.2632    0.2632
  band No.  band energies     occupation 
      1      -4.7974      2.00000
      2       2.2254      2.00000
      3       5.6563      2.00000
      4       5.6563      2.00000
      5       8.4884      0.00000
      6       9.8988      0.00000
      7       9.8988      0.00000
      8      13.8045      0.00000

 k-point  11 :       0.2368    0.2368    0.2368
  band No.  band energies     occupation 
      1      -4.9654      2.00000
      2       2.7115      2.00000
      3       5.7485      2.00000
      4       5.7485      2.00000
      5       8.5816      0.00000
      6       9.8647      0.00000
      7       9.8647      0.00000
      8      13.3999      0.00000

 k-point  12 :       0.2105    0.2105    0.2105
  band No.  band energies     occupation 
      1      -5.1179      2.00000
      2       3.2096      2.00000
      3       5.8487      2.00000
      4       5.8487      2.00000
      5       8.6784      0.00000
      6       9.7954      0.00000
      7       9.7954      0.00000
      8      12.9557      0.00000

 k-point  13 :       0.1842    0.1842    0.1842
  band No.  band energies     occupation 
      1      -5.2541      2.00000
      2       3.7163      2.00000
      3       5.9538      2.00000
      4       5.9538      2.00000
      5       8.7737      0.00000
      6       9.6904      0.00000
      7       9.6904      0.00000
      8      12.4912      0.00000

 k-point  14 :       0.1579    0.1579    0.1579
  band No.  band energies     occupation 
      1      -5.3731      2.00000
      2       4.2285      2.00000
      3       6.0624      2.00000
      4       6.0624      2.00000
      5       8.8668      0.00000
      6       9.5587      0.00000
      7       9.5587      0.00000
      8      12.0226      0.00000

 k-point  15 :       0.1316    0.1316    0.1316
  band No.  band energies     occupation 
      1      -5.4745      2.00000
      2       4.7369      2.00000
      3       6.1711      2.00000
      4       6.1711      2.00000
      5       8.9497      0.00000
      6       9.4117      0.00000
      7       9.4117      0.00000
      8      11.5608      0.00000

 k-point  16 :       0.1053    0.1053    0.1053
  band No.  band energies     occupation 
      1      -5.5578      2.00000
      2       5.2328      2.00000
      3       6.2755      2.00000
      4       6.2755      2.00000
      5       9.0116      0.00000
      6       9.2634      0.00000
      7       9.2634      0.00000
      8      11.1205      0.00000

 k-point  17 :       0.0789    0.0789    0.0789
  band No.  band energies     occupation 
      1      -5.6229      2.00000
      2       5.6994      2.00000
      3       6.3708      1.99995
      4       6.3708      1.99995
      5       9.0381      0.00000
      6       9.1276      0.00000
      7       9.1276      0.00000
      8      10.7277      0.00000

 k-point  18 :       0.0526    0.0526    0.0526
  band No.  band energies     occupation 
      1      -5.6695      2.00000
      2       6.1065      2.00000
      3       6.4470      1.99045
      4       6.4470      1.99045
      5       9.0151      0.00000
      6       9.0176      0.00000
      7       9.0176      0.00000
      8      10.4203      0.00000

 k-point  19 :       0.0263    0.0263    0.0263
  band No.  band energies     occupation 
      1      -5.6975      2.00000
      2       6.4029      1.99875
      3       6.4971      2.10318
      4       6.4971      2.10318
      5       8.9457      0.00000
      6       8.9457      0.00000
      7       8.9553      0.00000
      8      10.2331      0.00000

 k-point  20 :       0.0000    0.0000    0.0000
  band No.  band energies     occupation 
      1      -5.7068      2.00000
      2       6.5147      1.97209
      3       6.5147      1.97191
      4       6.5147      1.97191
      5       8.9205      0.00000
      6       8.9205      0.00000
      7       8.9205      0.00000
      8      10.1727      0.00000

 k-point  21 :       0.0000    0.0000    0.0000
  band No.  band energies     occupation 
      1      -5.7068      2.00000
      2       6.5147      1.97209
      3       6.5147      1.97191
      4       6.5147      1.97191
      5       8.9205      0.00000
      6       8.9205      0.00000
      7       8.9205      0.00000
      8      10.1727      0.00000

 k-point  22 :       0.0263    0.0263    0.0000
  band No.  band energies     occupation 
      1      -5.6944      2.00000
      2       6.4357      1.99127
      3       6.4559      1.99550
      4       6.4559      1.99551
      5       8.8896      0.00000
      6       8.9948      0.00000
      7       8.9948      0.00000
      8      10.2497      0.00000

 k-point  23 :       0.0526    0.0526    0.0000
  band No.  band energies     occupation 
      1      -5.6571      2.00000
      2       6.2159      2.00000
      3       6.2968      2.00000
      4       6.2968      2.00000
      5       8.8005      0.00000
      6       9.1987      0.00000
      7       9.1987      0.00000
      8      10.4571      0.00000

 k-point  24 :       0.0789    0.0789    0.0000
  band No.  band energies     occupation 
      1      -5.5948      2.00000
      2       5.8972      2.00000
      3       6.0776      2.00000
      4       6.0776      2.00000
      5       8.6643      0.00000
      6       9.4945      0.00000
      7       9.4946      0.00000
      8      10.7350      0.00000

 k-point  25 :       0.1053    0.1053    0.0000
  band No.  band energies     occupation 
      1      -5.5078      2.00000
      2       5.5143      2.00000
      3       5.8281      2.00000
      4       5.8281      2.00000
      5       8.4942      0.00000
      6       9.8506      0.00000
      7       9.8506      0.00000
      8      10.9902      0.00000

 k-point  26 :       0.1316    0.1316    0.0000
  band No.  band energies     occupation 
      1      -5.3961      2.00000
      2       5.0917      2.00000
      3       5.5682      2.00000
      4       5.5682      2.00000
      5       8.3033      0.00000
      6      10.2465      0.00000
      7      10.2465      0.00000
      8      11.0732      0.00000

 k-point  27 :       0.1579    0.1579    0.0000
  band No.  band energies     occupation 
      1      -5.2600      2.00000
      2       4.6441      2.00000
      3       5.3097      2.00000
      4       5.3097      2.00000
      5       8.1031      0.00000
      6      10.6709      0.00000
      7      10.6709      0.00000
      8      10.8810      0.00000

 k-point  28 :       0.1842    0.1842    0.0000
  band No.  band energies     occupation 
      1      -5.0996      2.00000
      2       4.1814      2.00000
      3       5.0597      2.00000
      4       5.0597      2.00000
      5       7.9026      0.00000
      6      10.5142      0.00000
      7      11.1138      0.00000
      8      11.1138      0.00000

 k-point  29 :       0.2105    0.2105    0.0000
  band No.  band energies     occupation 
      1      -4.9151      2.00000
      2       3.7078      2.00000
      3       4.8211      2.00000
      4       4.8211      2.00000
      5       7.7088      0.00000
      6      10.0850      0.00000
      7      11.5724      0.00000
      8      11.5724      0.00000

 k-point  30 :       0.2368    0.2368    0.0000
  band No.  band energies     occupation 
      1      -4.7069      2.00000
      2       3.2287      2.00000
      3       4.5995      2.00000
      4       4.5995      2.00000
      5       7.5270      0.00000
      6       9.6500      0.00000
      7      12.0409      0.00000
      8      12.0409      0.00000

 k-point  31 :       0.2632    0.2632    0.0000
  band No.  band energies     occupation 
      1      -4.4755      2.00000
      2       2.7459      2.00000
      3       4.3956      2.00000
      4       4.3956      2.00000
      5       7.3612      0.00000
      6       9.2308      0.00000
      7      12.5183      0.00000
      8      12.5183      0.00000

 k-point  32 :       0.2895    0.2895    0.0000
  band No.  band energies     occupation 
      1      -4.2211      2.00000
      2       2.2615      2.00000
      3       4.2107      2.00000
      4       4.2107      2.00000
      5       7.2147      0.00000
      6       8.8385      0.00000
      7      13.0031      0.00000
      8      13.0031      0.00000

 k-point  33 :       0.3158    0.3158    0.0000
  band No.  band energies     occupation 
      1      -3.9439      2.00000
      2       1.7775      2.00000
      3       4.0459      2.00000
      4       4.0459      2.00000
      5       7.0911      0.00000
      6       8.4788      0.00000
      7      13.4948      0.00000
      8      13.4948      0.00000

 k-point  34 :       0.3421    0.3421    0.0000
  band No.  band energies     occupation 
      1      -3.6451      2.00000
      2       1.2960      2.00000
      3       3.9019      2.00000
      4       3.9019      2.00000
      5       6.9914      0.00000
      6       8.1546      0.00000
      7      13.9980      0.00000
      8      13.9980      0.00000

 k-point  35 :       0.3684    0.3684    0.0000
  band No.  band energies     occupation 
      1      -3.3252      2.00000
      2       0.8187      2.00000
      3       3.7794      2.00000
      4       3.7794      2.00000
      5       6.9174      0.00000
      6       7.8681      0.00000
      7      14.5062      0.00000
      8      14.5062      0.00000

 k-point  36 :       0.3947    0.3947    0.0000
  band No.  band energies     occupation 
      1      -2.9849      2.00000
      2       0.3475      2.00000
      3       3.6779      2.00000
      4       3.6779      2.00000
      5       6.8696      0.00000
      6       7.6170      0.00000
      7      15.0126      0.00000
      8      15.0126      0.00000

 k-point  37 :       0.4211    0.4211    0.0000
  band No.  band energies     occupation 
      1      -2.6249      2.00000
      2      -0.1154      2.00000
      3       3.5992      2.00000
      4       3.5992      2.00000
      5       6.8504      0.00000
      6       7.4034      0.00000
      7      15.5216      0.00000
      8      15.5216      0.00000

 k-point  38 :       0.4474    0.4474    0.0000
  band No.  band energies     occupation 
      1      -2.2463      2.00000
      2      -0.5690      2.00000
      3       3.5427      2.00000
      4       3.5427      2.00000
      5       6.8608      0.00000
      6       7.2256      0.00000
      7      16.0243      0.00000
      8      16.0243      0.00000

 k-point  39 :       0.4737    0.4737    0.0000
  band No.  band energies     occupation 
      1      -1.8501      2.00000
      2      -1.0100      2.00000
      3       3.5088      2.00000
      4       3.5088      2.00000
      5       6.9025      0.00000
      6       7.0838      0.00000
      7      16.4965      0.00000
      8      16.4965      0.00000

 k-point  40 :       0.5000    0.5000    0.0000
  band No.  band energies     occupation 
      1      -1.4375      2.00000
      2      -1.4375      2.00000
      3       3.4975      2.00000
      4       3.4975      2.00000
      5       6.9765      0.00000
      6       6.9765      0.00000
      7      16.7635      0.00000
      8      16.7635      0.00000


--------------------------------------------------------------------------------------------------------


 soft charge-density along one line, spin component           1
         0         1         2         3         4         5         6         7         8         9
 total charge-density along one line
 
 pseudopotential strength for first ion, spin component:           1
 18.320  -0.002   0.000   0.000   0.000   0.000   0.000   0.000
 -0.002   0.006   0.000   0.000   0.000   0.000   0.000   0.000
  0.000   0.000   4.171   0.000   0.000  -0.005   0.000   0.000
  0.000   0.000   0.000   4.171   0.000   0.000  -0.005   0.000
  0.000   0.000   0.000   0.000   4.171   0.000   0.000  -0.005
  0.000   0.000  -0.005   0.000   0.000   0.005   0.000   0.000
  0.000   0.000   0.000  -0.005   0.000   0.000   0.005   0.000
  0.000   0.000   0.000   0.000  -0.005   0.000   0.000   0.005
 total augmentation occupancy for first ion, spin component:           1
  1.185  -1.007   0.000   0.000   0.000   0.000   0.000   0.000
 -1.007   1.424   0.000   0.000   0.000   0.000   0.000   0.000
  0.000   0.000   1.239   0.000   0.000  -0.635   0.000   0.000
  0.000   0.000   0.000   1.239   0.000   0.000  -0.635   0.000
  0.000   0.000   0.000   0.000   1.239   0.000   0.000  -0.635
  0.000   0.000  -0.635   0.000   0.000   0.388   0.000   0.000
  0.000   0.000   0.000  -0.635   0.000   0.000   0.388   0.000
  0.000   0.000   0.000   0.000  -0.635   0.000   0.000   0.388


------------------------ aborting loop because EDIFF is reached ----------------------------------------


 


 total charge     
 
# of ion     s       p       d       tot
----------------------------------------
  1        0.619   1.126   0.000   1.746
  2        0.619   1.126   0.000   1.746
------------------------------------------------
tot        1.239   2.253   0.000   3.491
 


--------------------------------------------------------------------------------------------------------



  FREE ENERGIE OF THE ION-ELECTRON SYSTEM (eV)
  ---------------------------------------------------
  free  energy   TOTEN  =        -3.607675 eV

  energy  without entropy=       -3.608156  energy(sigma->0) =       -3.607795
 
    CHARGE:  cpu time    0.02: real time    0.02
    FORLOC:  cpu time    0.00: real time    0.00
    FORNL :  cpu time    0.03: real time    0.03
    STRESS:  cpu time    0.09: real time    0.09
    FORCOR:  cpu time    0.02: real time    0.02
    FORHAR:  cpu time    0.01: real time    0.01
    MIXING:  cpu time    0.00: real time    0.00

  FORCE on cell =-STRESS in cart. coord.  units (eV):
  Direction    XX          YY          ZZ          XY          YZ          ZX
  --------------------------------------------------------------------------------------
  Alpha Z     3.44082     3.44082     3.44082
  Ewald     -76.76239   -76.76239   -76.76239     0.00000     0.00000     0.00000
  Hartree     5.99092     5.99092     5.99092     0.00000     0.00000     0.00000
  E(xc)     -26.11865   -26.11865   -26.11865     0.00000     0.00000     0.00000
  Local     -31.13325   -31.13325   -31.13325     0.00005     0.00005     0.00005
  n-local    76.78036    76.78036    72.08511    -1.72500    -1.72498    -1.72498
  augment   -10.32608   -10.32608   -10.32608    -0.00004    -0.00004    -0.00004
  Kinetic    67.40095    67.40095    62.42545    -1.85268    -1.85267    -1.85267
  Fock        0.00000     0.00000     0.00000     0.00000     0.00000     0.00000
  -------------------------------------------------------------------------------------
  Total       6.04911     6.04911     6.04911     0.00000     0.00000     0.00000
  in kB     247.65680   247.65680   247.65680     0.00000     0.00000     0.00000
  external pressure =      247.66 kB  Pullay stress =        0.00 kB


 VOLUME and BASIS-vectors are now :
 -----------------------------------------------------------------------------
  energy-cutoff  :      245.00
  volume of cell :       39.13
      direct lattice vectors                 reciprocal lattice vectors
     0.000000000  2.694680000  2.694680000    -0.185550789  0.185550789  0.185550789
     2.694680000  0.000000000  2.694680000     0.185550789 -0.185550789  0.185550789
     2.694680000  2.694680000  0.000000000     0.185550789  0.185550789 -0.185550789

  length of vectors
     3.810853002  3.810853002  3.810853002     0.321383394  0.321383394  0.321383394


 FORCES acting on ions
    electron-ion (+dipol)            ewald-force                    non-local-force                 convergence-correction
 -----------------------------------------------------------------------------------------------
   0.247E-05 0.247E-05 0.344E-05   0.172E-15 0.131E-14 0.398E-14   0.135E-15 0.170E-15 0.194E-15   -.796E-07 -.796E-07 0.498E-06
   -.247E-05 -.247E-05 -.344E-05   -.397E-16 -.910E-15 -.372E-14   -.163E-15 -.229E-15 -.149E-15   0.796E-07 0.796E-07 -.498E-06
 -----------------------------------------------------------------------------------------------
   0.393E-13 0.379E-13 0.103E-13   0.133E-15 0.404E-15 0.260E-15   -.278E-16 -.590E-16 0.451E-16   -.373E-14 0.164E-14 0.185E-14
 
 
 POSITION                                       TOTAL-FORCE (eV/Angst)
 -----------------------------------------------------------------------------------
      0.00000      0.00000      0.00000         0.000000      0.000000      0.000000
      1.34734      1.34734      1.34734         0.000000      0.000000      0.000000
 -----------------------------------------------------------------------------------
    total drift:                                0.000000      0.000000      0.000000


--------------------------------------------------------------------------------------------------------


    POTLOK:  cpu time    0.02: real time    0.02


--------------------------------------------------------------------------------------------------------


 writing wavefunctions
     LOOP+:  cpu time    5.40: real time    5.42
    4ORBIT:  cpu time    0.00: real time    0.00
 


 total charge     
 
# of ion     s       p       d       tot
----------------------------------------
  1        0.619   1.126   0.000   1.746
  2        0.619   1.126   0.000   1.746
------------------------------------------------
tot        1.239   2.253   0.000   3.491
 

 total amount of memory used by VASP on root node  33182. kBytes
========================================================================

   base      :    30000. kBytes
   nonl-proj :      448. kBytes
   fftplans  :      640. kBytes
   grid      :     1165. kBytes
   one-center:        3. kBytes
   wavefun   :      926. kBytes
 
  
  
 General timing and accounting informations for this job:
 ========================================================
  
                  Total CPU time used (sec):        5.750
                            User time (sec):        5.628
                          System time (sec):        0.122
                         Elapsed time (sec):        9.905
  
                   Maximum memory used (kb):           0.
                   Average memory used (kb):           0.
  
                          Minor page faults:        13450
                          Major page faults:            0
                 Voluntary context switches:          442
