PROCAR new format
# of k-points:   40         # of bands:   8         # of ions:   2

 k-point    1 :    0.50000000 0.50000000 0.50000000     weight = 0.02500000

band   1 # energy   -3.27768413 # occ.  2.00000000
 
ion      s      p      d    tot
  1  0.225  0.014  0.000  0.240
  2  0.225  0.014  0.000  0.240
tot  0.451  0.028  0.000  0.479
 
band   2 # energy   -0.69047248 # occ.  2.00000000
 
ion      s      p      d    tot
  1  0.093  0.097  0.000  0.190
  2  0.093  0.097  0.000  0.190
tot  0.186  0.195  0.000  0.380
 
band   3 # energy    5.25119695 # occ.  2.00000000
 
ion      s      p      d    tot
  1  0.000  0.222  0.000  0.222
  2  0.000  0.222  0.000  0.222
tot  0.000  0.445  0.000  0.445
 
band   4 # energy    5.25119726 # occ.  2.00000000
 
ion      s      p      d    tot
  1  0.000  0.222  0.000  0.222
  2  0.000  0.222  0.000  0.222
tot  0.000  0.445  0.000  0.445
 
band   5 # energy    8.05455023 # occ.  0.00000000
 
ion      s      p      d    tot
  1  0.191  0.016  0.000  0.207
  2  0.191  0.016  0.000  0.207
tot  0.382  0.032  0.000  0.414
 
band   6 # energy    9.64514182 # occ.  0.00000000
 
ion      s      p      d    tot
  1  0.000  0.092  0.000  0.092
  2  0.000  0.092  0.000  0.092
tot  0.000  0.184  0.000  0.184
 
band   7 # energy    9.64514189 # occ.  0.00000000
 
ion      s      p      d    tot
  1  0.000  0.092  0.000  0.092
  2  0.000  0.092  0.000  0.092
tot  0.000  0.184  0.000  0.184
 
band   8 # energy   14.04212584 # occ.  0.00000000
 
ion      s      p      d    tot
  1  0.007  0.048  0.000  0.056
  2  0.007  0.048  0.000  0.056
tot  0.015  0.097  0.000  0.111
 

 k-point    2 :    0.47368421 0.47368421 0.47368421     weight = 0.02500000

band   1 # energy   -3.32007756 # occ.  2.00000000
 
ion      s      p      d    tot
  1  0.224  0.015  0.000  0.239
  2  0.224  0.015  0.000  0.239
tot  0.448  0.029  0.000  0.477
 
band   2 # energy   -0.63050569 # occ.  2.00000000
 
ion      s      p      d    tot
  1  0.094  0.097  0.000  0.191
  2  0.094  0.097  0.000  0.191
tot  0.188  0.194  0.000  0.383
 
band   3 # energy    5.25625717 # occ.  2.00000000
 
ion      s      p      d    tot
  1  0.000  0.222  0.000  0.222
  2  0.000  0.222  0.000  0.222
tot  0.000  0.445  0.000  0.445
 
band   4 # energy    5.25625747 # occ.  2.00000000
 
ion      s      p      d    tot
  1  0.000  0.222  0.000  0.222
  2  0.000  0.222  0.000  0.222
tot  0.000  0.445  0.000  0.445
 
band   5 # energy    8.06182894 # occ.  0.00000000
 
ion      s      p      d    tot
  1  0.190  0.016  0.000  0.206
  2  0.190  0.016  0.000  0.206
tot  0.381  0.032  0.000  0.413
 
band   6 # energy    9.65183228 # occ.  0.00000000
 
ion      s      p      d    tot
  1  0.000  0.092  0.000  0.092
  2  0.000  0.092  0.000  0.092
tot  0.000  0.184  0.000  0.184
 
band   7 # energy    9.65183235 # occ.  0.00000000
 
ion      s      p      d    tot
  1  0.000  0.092  0.000  0.092
  2  0.000  0.092  0.000  0.092
tot  0.000  0.184  0.000  0.184
 
band   8 # energy   14.05235791 # occ.  0.00000000
 
ion      s      p      d    tot
  1  0.007  0.049  0.000  0.056
  2  0.007  0.049  0.000  0.056
tot  0.014  0.098  0.000  0.113
 

 k-point    3 :    0.44736842 0.44736842 0.44736842     weight = 0.02500000

band   1 # energy   -3.43658770 # occ.  2.00000000
 
ion      s      p      d    tot
  1  0.220  0.015  0.000  0.236
  2  0.220  0.015  0.000  0.236
tot  0.441  0.031  0.000  0.472
 
band   2 # energy   -0.46135715 # occ.  2.00000000
 
ion      s      p      d    tot
  1  0.097  0.097  0.000  0.194
  2  0.097  0.097  0.000  0.194
tot  0.194  0.194  0.000  0.388
 
band   3 # energy    5.27139843 # occ.  2.00000000
 
ion      s      p      d    tot
  1  0.000  0.222  0.000  0.222
  2  0.000  0.222  0.000  0.222
tot  0.000  0.444  0.000  0.444
 
band   4 # energy    5.27139874 # occ.  2.00000000
 
ion      s      p      d    tot
  1  0.000  0.222  0.000  0.222
  2  0.000  0.222  0.000  0.222
tot  0.000  0.444  0.000  0.444
 
band   5 # energy    8.07846959 # occ.  0.00000000
 
ion      s      p      d    tot
  1  0.189  0.017  0.000  0.206
  2  0.189  0.017  0.000  0.206
tot  0.378  0.034  0.000  0.413
 
band   6 # energy    9.67143833 # occ.  0.00000000
 
ion      s      p      d    tot
  1  0.000  0.094  0.000  0.094
  2  0.000  0.094  0.000  0.094
tot  0.000  0.187  0.000  0.187
 
band   7 # energy    9.67143840 # occ.  0.00000000
 
ion      s      p      d    tot
  1  0.000  0.094  0.000  0.094
  2  0.000  0.094  0.000  0.094
tot  0.000  0.187  0.000  0.187
 
band   8 # energy   14.08157499 # occ.  0.00000000
 
ion      s      p      d    tot
  1  0.007  0.051  0.000  0.058
  2  0.007  0.051  0.000  0.058
tot  0.013  0.103  0.000  0.116
 

 k-point    4 :    0.42105263 0.42105263 0.42105263     weight = 0.02500000

band   1 # energy   -3.60436785 # occ.  2.00000000
 
ion      s      p      d    tot
  1  0.216  0.016  0.000  0.232
  2  0.216  0.016  0.000  0.232
tot  0.433  0.031  0.000  0.464
 
band   2 # energy   -0.20640221 # occ.  2.00000000
 
ion      s      p      d    tot
  1  0.100  0.098  0.000  0.198
  2  0.100  0.098  0.000  0.198
tot  0.200  0.195  0.000  0.395
 
band   3 # energy    5.29656733 # occ.  2.00000000
 
ion      s      p      d    tot
  1  0.000  0.222  0.000  0.222
  2  0.000  0.222  0.000  0.222
tot  0.000  0.443  0.000  0.443
 
band   4 # energy    5.29656764 # occ.  2.00000000
 
ion      s      p      d    tot
  1  0.000  0.222  0.000  0.222
  2  0.000  0.222  0.000  0.222
tot  0.000  0.443  0.000  0.443
 
band   5 # energy    8.10651092 # occ.  0.00000000
 
ion      s      p      d    tot
  1  0.188  0.019  0.000  0.206
  2  0.188  0.019  0.000  0.206
tot  0.375  0.037  0.000  0.413
 
band   6 # energy    9.70435463 # occ.  0.00000000
 
ion      s      p      d    tot
  1  0.000  0.096  0.000  0.096
  2  0.000  0.096  0.000  0.096
tot  0.000  0.192  0.000  0.192
 
band   7 # energy    9.70435470 # occ.  0.00000000
 
ion      s      p      d    tot
  1  0.000  0.096  0.000  0.096
  2  0.000  0.096  0.000  0.096
tot  0.000  0.192  0.000  0.192
 
band   8 # energy   14.12796231 # occ.  0.00000000
 
ion      s      p      d    tot
  1  0.006  0.056  0.000  0.062
  2  0.006  0.056  0.000  0.062
tot  0.012  0.112  0.000  0.123
 

 k-point    5 :    0.39473684 0.39473684 0.39473684     weight = 0.02500000

band   1 # energy   -3.79994586 # occ.  2.00000000
 
ion      s      p      d    tot
  1  0.213  0.016  0.000  0.229
  2  0.213  0.016  0.000  0.229
tot  0.426  0.031  0.000  0.458
 
band   2 # energy    0.11151965 # occ.  2.00000000
 
ion      s      p      d    tot
  1  0.102  0.099  0.000  0.201
  2  0.102  0.099  0.000  0.201
tot  0.203  0.198  0.000  0.402
 
band   3 # energy    5.33188140 # occ.  2.00000000
 
ion      s      p      d    tot
  1  0.000  0.221  0.000  0.221
  2  0.000  0.221  0.000  0.221
tot  0.000  0.442  0.000  0.442
 
band   4 # energy    5.33188171 # occ.  2.00000000
 
ion      s      p      d    tot
  1  0.000  0.221  0.000  0.221
  2  0.000  0.221  0.000  0.221
tot  0.000  0.442  0.000  0.442
 
band   5 # energy    8.14512698 # occ.  0.00000000
 
ion      s      p      d    tot
  1  0.185  0.021  0.000  0.206
  2  0.185  0.021  0.000  0.206
tot  0.370  0.042  0.000  0.412
 
band   6 # energy    9.74459073 # occ.  0.00000000
 
ion      s      p      d    tot
  1  0.000  0.099  0.000  0.099
  2  0.000  0.099  0.000  0.099
tot  0.000  0.199  0.000  0.199
 
band   7 # energy    9.74459079 # occ.  0.00000000
 
ion      s      p      d    tot
  1  0.000  0.099  0.000  0.099
  2  0.000  0.099  0.000  0.099
tot  0.000  0.199  0.000  0.199
 
band   8 # energy   14.18763875 # occ.  0.00000000
 
ion      s      p      d    tot
  1  0.005  0.063  0.000  0.068
  2  0.005  0.063  0.000  0.068
tot  0.010  0.126  0.000  0.135
 

 k-point    6 :    0.36842105 0.36842105 0.36842105     weight = 0.02500000

band   1 # energy   -4.00755365 # occ.  2.00000000
 
ion      s      p      d    tot
  1  0.211  0.015  0.000  0.226
  2  0.211  0.015  0.000  0.226
tot  0.422  0.030  0.000  0.452
 
band   2 # energy    0.47675718 # occ.  2.00000000
 
ion      s      p      d    tot
  1  0.102  0.102  0.000  0.204
  2  0.102  0.102  0.000  0.204
tot  0.204  0.204  0.000  0.409
 
band   3 # energy    5.37691164 # occ.  2.00000000
 
ion      s      p      d    tot
  1  0.000  0.220  0.000  0.220
  2  0.000  0.220  0.000  0.220
tot  0.000  0.441  0.000  0.441
 
band   4 # energy    5.37691195 # occ.  2.00000000
 
ion      s      p      d    tot
  1  0.000  0.220  0.000  0.220
  2  0.000  0.220  0.000  0.220
tot  0.000  0.441  0.000  0.441
 
band   5 # energy    8.19443909 # occ.  0.00000000
 
ion      s      p      d    tot
  1  0.182  0.024  0.000  0.205
  2  0.182  0.024  0.000  0.205
tot  0.363  0.048  0.000  0.411
 
band   6 # energy    9.78925926 # occ.  0.00000000
 
ion      s      p      d    tot
  1  0.000  0.104  0.000  0.104
  2  0.000  0.104  0.000  0.104
tot  0.000  0.207  0.000  0.207
 
band   7 # energy    9.78925933 # occ.  0.00000000
 
ion      s      p      d    tot
  1  0.000  0.104  0.000  0.104
  2  0.000  0.104  0.000  0.104
tot  0.000  0.207  0.000  0.207
 
band   8 # energy   14.25282261 # occ.  0.00000000
 
ion      s      p      d    tot
  1  0.004  0.075  0.000  0.079
  2  0.004  0.075  0.000  0.079
tot  0.008  0.149  0.000  0.158
 

 k-point    7 :    0.34210526 0.34210526 0.34210526     weight = 0.02500000

band   1 # energy   -4.21670427 # occ.  2.00000000
 
ion      s      p      d    tot
  1  0.210  0.014  0.000  0.224
  2  0.210  0.014  0.000  0.224
tot  0.420  0.028  0.000  0.447
 
band   2 # energy    0.87656783 # occ.  2.00000000
 
ion      s      p      d    tot
  1  0.101  0.106  0.000  0.207
  2  0.101  0.106  0.000  0.207
tot  0.203  0.211  0.000  0.414
 
band   3 # energy    5.43225707 # occ.  2.00000000
 
ion      s      p      d    tot
  1  0.000  0.220  0.000  0.220
  2  0.000  0.220  0.000  0.220
tot  0.000  0.439  0.000  0.439
 
band   4 # energy    5.43225737 # occ.  2.00000000
 
ion      s      p      d    tot
  1  0.000  0.220  0.000  0.220
  2  0.000  0.220  0.000  0.220
tot  0.000  0.439  0.000  0.439
 
band   5 # energy    8.25406058 # occ.  0.00000000
 
ion      s      p      d    tot
  1  0.177  0.028  0.000  0.205
  2  0.177  0.028  0.000  0.205
tot  0.355  0.055  0.000  0.410
 
band   6 # energy    9.83504094 # occ.  0.00000000
 
ion      s      p      d    tot
  1  0.000  0.110  0.000  0.110
  2  0.000  0.110  0.000  0.110
tot  0.000  0.219  0.000  0.219
 
band   7 # energy    9.83504100 # occ.  0.00000000
 
ion      s      p      d    tot
  1  0.000  0.110  0.000  0.110
  2  0.000  0.110  0.000  0.110
tot  0.000  0.219  0.000  0.219
 
band   8 # energy   14.29919569 # occ.  0.00000000
 
ion      s      p      d    tot
  1  0.006  0.095  0.000  0.101
  2  0.006  0.095  0.000  0.101
tot  0.012  0.190  0.000  0.202
 

 k-point    8 :    0.31578947 0.31578947 0.31578947     weight = 0.02500000

band   1 # energy   -4.42065063 # occ.  2.00000000
 
ion      s      p      d    tot
  1  0.209  0.012  0.000  0.222
  2  0.209  0.012  0.000  0.222
tot  0.419  0.025  0.000  0.443
 
band   2 # energy    1.30446153 # occ.  2.00000000
 
ion      s      p      d    tot
  1  0.099  0.110  0.000  0.209
  2  0.099  0.110  0.000  0.209
tot  0.199  0.220  0.000  0.418
 
band   3 # energy    5.49741161 # occ.  2.00000000
 
ion      s      p      d    tot
  1  0.000  0.219  0.000  0.219
  2  0.000  0.219  0.000  0.219
tot  0.000  0.437  0.000  0.437
 
band   4 # energy    5.49741191 # occ.  2.00000000
 
ion      s      p      d    tot
  1  0.000  0.219  0.000  0.219
  2  0.000  0.219  0.000  0.219
tot  0.000  0.437  0.000  0.437
 
band   5 # energy    8.32347753 # occ.  0.00000000
 
ion      s      p      d    tot
  1  0.172  0.032  0.000  0.205
  2  0.172  0.032  0.000  0.205
tot  0.345  0.064  0.000  0.409
 
band   6 # energy    9.87422156 # occ.  0.00000000
 
ion      s      p      d    tot
  1  0.000  0.117  0.000  0.117
  2  0.000  0.117  0.000  0.117
tot  0.000  0.233  0.000  0.233
 
band   7 # energy    9.87422162 # occ.  0.00000000
 
ion      s      p      d    tot
  1  0.000  0.117  0.000  0.117
  2  0.000  0.117  0.000  0.117
tot  0.000  0.233  0.000  0.233
 
band   8 # energy   14.27640859 # occ.  0.00000000
 
ion      s      p      d    tot
  1  0.019  0.124  0.000  0.143
  2  0.019  0.123  0.000  0.143
tot  0.038  0.247  0.000  0.285
 

 k-point    9 :    0.28947368 0.28947368 0.28947368     weight = 0.02500000

band   1 # energy   -4.61513403 # occ.  2.00000000
 
ion      s      p      d    tot
  1  0.209  0.011  0.000  0.220
  2  0.209  0.011  0.000  0.220
tot  0.418  0.022  0.000  0.440
 
band   2 # energy    1.75531538 # occ.  2.00000000
 
ion      s      p      d    tot
  1  0.096  0.115  0.000  0.211
  2  0.096  0.115  0.000  0.211
tot  0.193  0.230  0.000  0.422
 
band   3 # energy    5.57209404 # occ.  2.00000000
 
ion      s      p      d    tot
  1  0.000  0.218  0.000  0.218
  2  0.000  0.218  0.000  0.218
tot  0.000  0.436  0.000  0.436
 
band   4 # energy    5.57209435 # occ.  2.00000000
 
ion      s      p      d    tot
  1  0.000  0.218  0.000  0.218
  2  0.000  0.218  0.000  0.218
tot  0.000  0.436  0.000  0.436
 
band   5 # energy    8.40192458 # occ.  0.00000000
 
ion      s      p      d    tot
  1  0.167  0.037  0.000  0.204
  2  0.167  0.037  0.000  0.204
tot  0.333  0.075  0.000  0.408
 
band   6 # energy    9.89830454 # occ.  0.00000000
 
ion      s      p      d    tot
  1  0.000  0.125  0.000  0.125
  2  0.000  0.125  0.000  0.125
tot  0.000  0.249  0.000  0.249
 
band   7 # energy    9.89830459 # occ.  0.00000000
 
ion      s      p      d    tot
  1  0.000  0.125  0.000  0.125
  2  0.000  0.125  0.000  0.125
tot  0.000  0.249  0.000  0.249
 
band   8 # energy   13.86041482 # occ.  0.00000000
 
ion      s      p      d    tot
  1  0.000  0.029  0.000  0.029
  2  0.000  0.029  0.000  0.029
tot  0.000  0.057  0.000  0.057
 

 k-point   10 :    0.26315789 0.26315789 0.26315789     weight = 0.02500000

band   1 # energy   -4.79735007 # occ.  2.00000000
 
ion      s      p      d    tot
  1  0.209  0.009  0.000  0.219
  2  0.209  0.009  0.000  0.219
tot  0.419  0.019  0.000  0.437
 
band   2 # energy    2.22542251 # occ.  2.00000000
 
ion      s      p      d    tot
  1  0.093  0.121  0.000  0.213
  2  0.093  0.121  0.000  0.213
tot  0.185  0.241  0.000  0.426
 
band   3 # energy    5.65626925 # occ.  2.00000000
 
ion      s      p      d    tot
  1  0.000  0.217  0.000  0.217
  2  0.000  0.217  0.000  0.217
tot  0.000  0.434  0.000  0.434
 
band   4 # energy    5.65626955 # occ.  2.00000000
 
ion      s      p      d    tot
  1  0.000  0.217  0.000  0.217
  2  0.000  0.217  0.000  0.217
tot  0.000  0.434  0.000  0.434
 
band   5 # energy    8.48840315 # occ.  0.00000000
 
ion      s      p      d    tot
  1  0.160  0.043  0.000  0.203
  2  0.160  0.043  0.000  0.203
tot  0.319  0.087  0.000  0.406
 
band   6 # energy    9.89881582 # occ.  0.00000000
 
ion      s      p      d    tot
  1  0.000  0.134  0.000  0.134
  2  0.000  0.134  0.000  0.134
tot  0.000  0.267  0.000  0.267
 
band   7 # energy    9.89881586 # occ.  0.00000000
 
ion      s      p      d    tot
  1  0.000  0.134  0.000  0.134
  2  0.000  0.134  0.000  0.134
tot  0.000  0.267  0.000  0.267
 
band   8 # energy   13.80445047 # occ.  0.00000000
 
ion      s      p      d    tot
  1  0.090  0.156  0.000  0.246
  2  0.090  0.156  0.000  0.246
tot  0.180  0.312  0.000  0.492
 

 k-point   11 :    0.23684211 0.23684211 0.23684211     weight = 0.02500000

band   1 # energy   -4.96539204 # occ.  2.00000000
 
ion      s      p      d    tot
  1  0.210  0.008  0.000  0.217
  2  0.210  0.008  0.000  0.217
tot  0.419  0.016  0.000  0.435
 
band   2 # energy    2.71148036 # occ.  2.00000000
 
ion      s      p      d    tot
  1  0.088  0.127  0.000  0.215
  2  0.088  0.127  0.000  0.215
tot  0.176  0.254  0.000  0.430
 
band   3 # energy    5.74852508 # occ.  2.00000000
 
ion      s      p      d    tot
  1  0.000  0.217  0.000  0.217
  2  0.000  0.217  0.000  0.217
tot  0.000  0.433  0.000  0.433
 
band   4 # energy    5.74852539 # occ.  2.00000000
 
ion      s      p      d    tot
  1  0.000  0.217  0.000  0.217
  2  0.000  0.217  0.000  0.217
tot  0.000  0.433  0.000  0.433
 
band   5 # energy    8.58155266 # occ.  0.00000000
 
ion      s      p      d    tot
  1  0.151  0.051  0.000  0.202
  2  0.151  0.051  0.000  0.202
tot  0.302  0.101  0.000  0.403
 
band   6 # energy    9.86469441 # occ.  0.00000000
 
ion      s      p      d    tot
  1  0.000  0.142  0.000  0.142
  2  0.000  0.142  0.000  0.142
tot  0.000  0.283  0.000  0.283
 
band   7 # energy    9.86469444 # occ.  0.00000000
 
ion      s      p      d    tot
  1  0.000  0.142  0.000  0.142
  2  0.000  0.142  0.000  0.142
tot  0.000  0.283  0.000  0.283
 
band   8 # energy   13.39991828 # occ.  0.00000000
 
ion      s      p      d    tot
  1  0.121  0.148  0.000  0.269
  2  0.121  0.148  0.000  0.269
tot  0.241  0.296  0.000  0.537
 

 k-point   12 :    0.21052632 0.21052632 0.21052632     weight = 0.02500000

band   1 # energy   -5.11792088 # occ.  2.00000000
 
ion      s      p      d    tot
  1  0.210  0.006  0.000  0.216
  2  0.210  0.006  0.000  0.216
tot  0.420  0.013  0.000  0.433
 
band   2 # energy    3.20962572 # occ.  2.00000000
 
ion      s      p      d    tot
  1  0.082  0.134  0.000  0.216
  2  0.082  0.134  0.000  0.216
tot  0.165  0.268  0.000  0.433
 
band   3 # energy    5.84873082 # occ.  2.00000000
 
ion      s      p      d    tot
  1  0.000  0.216  0.000  0.216
  2  0.000  0.216  0.000  0.216
tot  0.000  0.433  0.000  0.433
 
band   4 # energy    5.84873112 # occ.  2.00000000
 
ion      s      p      d    tot
  1  0.000  0.216  0.000  0.216
  2  0.000  0.216  0.000  0.216
tot  0.000  0.433  0.000  0.433
 
band   5 # energy    8.67840795 # occ.  0.00000000
 
ion      s      p      d    tot
  1  0.142  0.059  0.000  0.200
  2  0.142  0.059  0.000  0.200
tot  0.283  0.117  0.000  0.401
 
band   6 # energy    9.79542309 # occ.  0.00000000
 
ion      s      p      d    tot
  1  0.000  0.148  0.000  0.148
  2  0.000  0.148  0.000  0.148
tot  0.000  0.296  0.000  0.296
 
band   7 # energy    9.79542310 # occ.  0.00000000
 
ion      s      p      d    tot
  1  0.000  0.148  0.000  0.148
  2  0.000  0.148  0.000  0.148
tot  0.000  0.296  0.000  0.296
 
band   8 # energy   12.95568866 # occ.  0.00000000
 
ion      s      p      d    tot
  1  0.144  0.137  0.000  0.281
  2  0.144  0.137  0.000  0.281
tot  0.289  0.274  0.000  0.562
 

 k-point   13 :    0.18421053 0.18421053 0.18421053     weight = 0.02500000

band   1 # energy   -5.25412711 # occ.  2.00000000
 
ion      s      p      d    tot
  1  0.211  0.005  0.000  0.216
  2  0.211  0.005  0.000  0.216
tot  0.421  0.010  0.000  0.431
 
band   2 # energy    3.71629187 # occ.  2.00000000
 
ion      s      p      d    tot
  1  0.076  0.142  0.000  0.218
  2  0.076  0.142  0.000  0.218
tot  0.152  0.283  0.000  0.435
 
band   3 # energy    5.95384227 # occ.  2.00000000
 
ion      s      p      d    tot
  1  0.000  0.216  0.000  0.216
  2  0.000  0.216  0.000  0.216
tot  0.000  0.432  0.000  0.432
 
band   4 # energy    5.95384258 # occ.  2.00000000
 
ion      s      p      d    tot
  1  0.000  0.216  0.000  0.216
  2  0.000  0.216  0.000  0.216
tot  0.000  0.432  0.000  0.432
 
band   5 # energy    8.77365690 # occ.  0.00000000
 
ion      s      p      d    tot
  1  0.130  0.068  0.000  0.198
  2  0.130  0.068  0.000  0.198
tot  0.260  0.136  0.000  0.396
 
band   6 # energy    9.69044055 # occ.  0.00000000
 
ion      s      p      d    tot
  1  0.000  0.153  0.000  0.153
  2  0.000  0.153  0.000  0.153
tot  0.000  0.305  0.000  0.305
 
band   7 # energy    9.69044056 # occ.  0.00000000
 
ion      s      p      d    tot
  1  0.000  0.153  0.000  0.153
  2  0.000  0.153  0.000  0.153
tot  0.000  0.305  0.000  0.305
 
band   8 # energy   12.49123520 # occ.  0.00000000
 
ion      s      p      d    tot
  1  0.166  0.124  0.000  0.290
  2  0.166  0.124  0.000  0.290
tot  0.332  0.248  0.000  0.580
 

 k-point   14 :    0.15789474 0.15789474 0.15789474     weight = 0.02500000

band   1 # energy   -5.37308835 # occ.  2.00000000
 
ion      s      p      d    tot
  1  0.211  0.004  0.000  0.215
  2  0.211  0.004  0.000  0.215
tot  0.422  0.007  0.000  0.430
 
band   2 # energy    4.22847192 # occ.  2.00000000
 
ion      s      p      d    tot
  1  0.068  0.151  0.000  0.219
  2  0.068  0.151  0.000  0.219
tot  0.137  0.302  0.000  0.439
 
band   3 # energy    6.06242164 # occ.  2.00000000
 
ion      s      p      d    tot
  1  0.000  0.216  0.000  0.216
  2  0.000  0.216  0.000  0.216
tot  0.000  0.432  0.000  0.432
 
band   4 # energy    6.06242194 # occ.  2.00000000
 
ion      s      p      d    tot
  1  0.000  0.216  0.000  0.216
  2  0.000  0.216  0.000  0.216
tot  0.000  0.432  0.000  0.432
 
band   5 # energy    8.86677399 # occ.  0.00000000
 
ion      s      p      d    tot
  1  0.116  0.079  0.000  0.195
  2  0.116  0.079  0.000  0.195
tot  0.231  0.158  0.000  0.389
 
band   6 # energy    9.55866813 # occ.  0.00000000
 
ion      s      p      d    tot
  1  0.000  0.155  0.000  0.155
  2  0.000  0.155  0.000  0.155
tot  0.000  0.310  0.000  0.310
 
band   7 # energy    9.55866816 # occ.  0.00000000
 
ion      s      p      d    tot
  1  0.000  0.155  0.000  0.155
  2  0.000  0.155  0.000  0.155
tot  0.000  0.310  0.000  0.310
 
band   8 # energy   12.02261139 # occ.  0.00000000
 
ion      s      p      d    tot
  1  0.188  0.110  0.000  0.298
  2  0.188  0.110  0.000  0.298
tot  0.376  0.220  0.000  0.596
 

 k-point   15 :    0.13157895 0.13157895 0.13157895     weight = 0.02500000

band   1 # energy   -5.47445586 # occ.  2.00000000
 
ion      s      p      d    tot
  1  0.212  0.003  0.000  0.214
  2  0.212  0.003  0.000  0.214
tot  0.423  0.005  0.000  0.428
 
band   2 # energy    4.73692729 # occ.  2.00000000
 
ion      s      p      d    tot
  1  0.059  0.161  0.000  0.220
  2  0.059  0.161  0.000  0.220
tot  0.119  0.321  0.000  0.440
 
band   3 # energy    6.17113886 # occ.  2.00000000
 
ion      s      p      d    tot
  1  0.000  0.216  0.000  0.216
  2  0.000  0.216  0.000  0.216
tot  0.000  0.433  0.000  0.433
 
band   4 # energy    6.17113917 # occ.  2.00000000
 
ion      s      p      d    tot
  1  0.000  0.216  0.000  0.216
  2  0.000  0.216  0.000  0.216
tot  0.000  0.433  0.000  0.433
 
band   5 # energy    8.94972578 # occ.  0.00000000
 
ion      s      p      d    tot
  1  0.098  0.092  0.000  0.190
  2  0.098  0.092  0.000  0.190
tot  0.195  0.184  0.000  0.379
 
band   6 # energy    9.41174477 # occ.  0.00000000
 
ion      s      p      d    tot
  1  0.000  0.156  0.000  0.156
  2  0.000  0.156  0.000  0.156
tot  0.000  0.312  0.000  0.312
 
band   7 # energy    9.41174480 # occ.  0.00000000
 
ion      s      p      d    tot
  1  0.000  0.156  0.000  0.156
  2  0.000  0.156  0.000  0.156
tot  0.000  0.312  0.000  0.312
 
band   8 # energy   11.56078986 # occ.  0.00000000
 
ion      s      p      d    tot
  1  0.214  0.094  0.000  0.308
  2  0.214  0.094  0.000  0.308
tot  0.427  0.188  0.000  0.615
 

 k-point   16 :    0.10526316 0.10526316 0.10526316     weight = 0.02500000

band   1 # energy   -5.55781306 # occ.  2.00000000
 
ion      s      p      d    tot
  1  0.212  0.002  0.000  0.214
  2  0.212  0.002  0.000  0.214
tot  0.424  0.003  0.000  0.428
 
band   2 # energy    5.23280163 # occ.  2.00000000
 
ion      s      p      d    tot
  1  0.048  0.172  0.000  0.220
  2  0.048  0.172  0.000  0.220
tot  0.097  0.344  0.000  0.441
 
band   3 # energy    6.27552104 # occ.  2.00000000
 
ion      s      p      d    tot
  1  0.000  0.217  0.000  0.217
  2  0.000  0.217  0.000  0.217
tot  0.000  0.434  0.000  0.434
 
band   4 # energy    6.27552135 # occ.  2.00000000
 
ion      s      p      d    tot
  1  0.000  0.217  0.000  0.217
  2  0.000  0.217  0.000  0.217
tot  0.000  0.434  0.000  0.434
 
band   5 # energy    9.01160327 # occ.  0.00000000
 
ion      s      p      d    tot
  1  0.074  0.108  0.000  0.182
  2  0.074  0.108  0.000  0.182
tot  0.148  0.216  0.000  0.364
 
band   6 # energy    9.26342889 # occ.  0.00000000
 
ion      s      p      d    tot
  1  0.000  0.155  0.000  0.155
  2  0.000  0.155  0.000  0.155
tot  0.000  0.311  0.000  0.311
 
band   7 # energy    9.26342894 # occ.  0.00000000
 
ion      s      p      d    tot
  1  0.000  0.155  0.000  0.155
  2  0.000  0.155  0.000  0.155
tot  0.000  0.311  0.000  0.311
 
band   8 # energy   11.12046856 # occ.  0.00000000
 
ion      s      p      d    tot
  1  0.245  0.074  0.000  0.319
  2  0.245  0.074  0.000  0.319
tot  0.490  0.148  0.000  0.638
 

 k-point   17 :    0.07894737 0.07894737 0.07894737     weight = 0.02500000

band   1 # energy   -5.62285078 # occ.  2.00000000
 
ion      s      p      d    tot
  1  0.213  0.001  0.000  0.213
  2  0.213  0.001  0.000  0.213
tot  0.425  0.002  0.000  0.427
 
band   2 # energy    5.69943507 # occ.  2.00000000
 
ion      s      p      d    tot
  1  0.035  0.185  0.000  0.220
  2  0.035  0.185  0.000  0.220
tot  0.071  0.370  0.000  0.441
 
band   3 # energy    6.37081501 # occ.  1.99995119
 
ion      s      p      d    tot
  1  0.000  0.218  0.000  0.218
  2  0.000  0.218  0.000  0.218
tot  0.000  0.436  0.000  0.436
 
band   4 # energy    6.37081532 # occ.  1.99995118
 
ion      s      p      d    tot
  1  0.000  0.218  0.000  0.218
  2  0.000  0.218  0.000  0.218
tot  0.000  0.436  0.000  0.436
 
band   5 # energy    9.03811615 # occ.  0.00000000
 
ion      s      p      d    tot
  1  0.045  0.126  0.000  0.172
  2  0.045  0.126  0.000  0.172
tot  0.091  0.253  0.000  0.343
 
band   6 # energy    9.12759896 # occ.  0.00000000
 
ion      s      p      d    tot
  1  0.000  0.154  0.000  0.154
  2  0.000  0.154  0.000  0.154
tot  0.000  0.309  0.000  0.309
 
band   7 # energy    9.12759901 # occ.  0.00000000
 
ion      s      p      d    tot
  1  0.000  0.154  0.000  0.154
  2  0.000  0.154  0.000  0.154
tot  0.000  0.309  0.000  0.309
 
band   8 # energy   10.72765146 # occ.  0.00000000
 
ion      s      p      d    tot
  1  0.284  0.049  0.000  0.333
  2  0.284  0.049  0.000  0.333
tot  0.567  0.099  0.000  0.666
 

 k-point   18 :    0.05263158 0.05263158 0.05263158     weight = 0.02500000

band   1 # energy   -5.66948144 # occ.  2.00000000
 
ion      s      p      d    tot
  1  0.213  0.000  0.000  0.213
  2  0.213  0.000  0.000  0.213
tot  0.426  0.001  0.000  0.426
 
band   2 # energy    6.10653881 # occ.  2.00000000
 
ion      s      p      d    tot
  1  0.020  0.200  0.000  0.220
  2  0.020  0.200  0.000  0.220
tot  0.041  0.399  0.000  0.440
 
band   3 # energy    6.44695551 # occ.  1.99044555
 
ion      s      p      d    tot
  1  0.000  0.219  0.000  0.219
  2  0.000  0.219  0.000  0.219
tot  0.000  0.438  0.000  0.438
 
band   4 # energy    6.44695583 # occ.  1.99044562
 
ion      s      p      d    tot
  1  0.000  0.219  0.000  0.219
  2  0.000  0.219  0.000  0.219
tot  0.000  0.438  0.000  0.438
 
band   5 # energy    9.01505226 # occ.  0.00000000
 
ion      s      p      d    tot
  1  0.017  0.143  0.000  0.160
  2  0.017  0.143  0.000  0.160
tot  0.034  0.286  0.000  0.320
 
band   6 # energy    9.01764647 # occ.  0.00000000
 
ion      s      p      d    tot
  1  0.000  0.153  0.000  0.153
  2  0.000  0.153  0.000  0.153
tot  0.000  0.306  0.000  0.306
 
band   7 # energy    9.01764653 # occ.  0.00000000
 
ion      s      p      d    tot
  1  0.000  0.153  0.000  0.153
  2  0.000  0.153  0.000  0.153
tot  0.000  0.306  0.000  0.306
 
band   8 # energy   10.42026972 # occ.  0.00000000
 
ion      s      p      d    tot
  1  0.323  0.024  0.000  0.347
  2  0.323  0.024  0.000  0.347
tot  0.647  0.048  0.000  0.694
 

 k-point   19 :    0.02631579 0.02631579 0.02631579     weight = 0.02500000

band   1 # energy   -5.69748089 # occ.  2.00000000
 
ion      s      p      d    tot
  1  0.213  0.000  0.000  0.213
  2  0.213  0.000  0.000  0.213
tot  0.426  0.000  0.000  0.426
 
band   2 # energy    6.40293334 # occ.  1.99875349
 
ion      s      p      d    tot
  1  0.006  0.214  0.000  0.220
  2  0.006  0.214  0.000  0.220
tot  0.013  0.427  0.000  0.440
 
band   3 # energy    6.49712961 # occ.  2.10318075
 
ion      s      p      d    tot
  1  0.000  0.220  0.000  0.220
  2  0.000  0.220  0.000  0.220
tot  0.000  0.439  0.000  0.439
 
band   4 # energy    6.49712993 # occ.  2.10318066
 
ion      s      p      d    tot
  1  0.000  0.220  0.000  0.220
  2  0.000  0.220  0.000  0.220
tot  0.000  0.439  0.000  0.439
 
band   5 # energy    8.94565864 # occ.  0.00000000
 
ion      s      p      d    tot
  1  0.000  0.152  0.000  0.152
  2  0.000  0.152  0.000  0.152
tot  0.000  0.304  0.000  0.304
 
band   6 # energy    8.94565869 # occ.  0.00000000
 
ion      s      p      d    tot
  1  0.000  0.152  0.000  0.152
  2  0.000  0.152  0.000  0.152
tot  0.000  0.304  0.000  0.304
 
band   7 # energy    8.95533988 # occ.  0.00000000
 
ion      s      p      d    tot
  1  0.002  0.151  0.000  0.153
  2  0.002  0.151  0.000  0.153
tot  0.005  0.302  0.000  0.307
 
band   8 # energy   10.23307418 # occ.  0.00000000
 
ion      s      p      d    tot
  1  0.350  0.006  0.000  0.356
  2  0.350  0.006  0.000  0.356
tot  0.700  0.011  0.000  0.712
 

 k-point   20 :    0.00000000 0.00000000 0.00000000     weight = 0.02500000

band   1 # energy   -5.70681779 # occ.  2.00000000
 
ion      s      p      d    tot
  1  0.213  0.000  0.000  0.213
  2  0.213  0.000  0.000  0.213
tot  0.426  0.000  0.000  0.426
 
band   2 # energy    6.51471444 # occ.  1.97208713
 
ion      s      p      d    tot
  1  0.000  0.220  0.000  0.220
  2  0.000  0.220  0.000  0.220
tot  0.000  0.440  0.000  0.440
 
band   3 # energy    6.51472488 # occ.  1.97191420
 
ion      s      p      d    tot
  1  0.000  0.220  0.000  0.220
  2  0.000  0.220  0.000  0.220